LAMMPS (22 Aug 2018)
log log.Antonello.lammps
