LAMMPS (20 Nov 2019)
log log.Bernini.lammps
s
