LAMMPS (7 Aug 2019)
# Running the code on Enrico's Mac Air
#    /opt/local/bin/mpiexec-mpich-mp -np 4 ./lmp_mac_mpi -in input.dat

units si

atom_style sphere

boundary p p p

variable Nstep equal 388

region boxfoo block -100 100 -100 100 -100 100 units box
create_box  6 boxfoo
Created orthogonal box = (-100 -100 -100) to (100 100 100)
  1 by 1 by 1 MPI processor grid
read_dump ../dump.all_copy.Antonello  $(v_Nstep) x y z box yes add keep
read_dump ../dump.all_copy.Antonello  388 x y z box yes add keep
  orthogonal box = (0 0 0) to (1.15137e-05 5.11718e-06 8.95507e-06)
  0 atoms before read
  886 atoms in snapshot
  0 atoms purged
  0 atoms replaced
  0 atoms trimmed
  886 atoms added
  886 atoms after read

variable Diam equal 1e-6

set	type 1 diameter $(v_Diam)
set	type 1 diameter 9.9999999999999995475e-07
  216 settings made for diameter
set	type 2 diameter $(v_Diam)
set	type 2 diameter 9.9999999999999995475e-07
  571 settings made for diameter
set	type 3 diameter $(v_Diam)
set	type 3 diameter 9.9999999999999995475e-07
  0 settings made for diameter
set	type 5 diameter $(v_Diam)
set	type 5 diameter 9.9999999999999995475e-07
  99 settings made for diameter




	# TYPE 1,2 	sigmaLJ =3
	# TYPE 3,4 	sigmaLJ =6
	# TYPE 5,6 	sigmaLJ =9
	# TYPE 7,8 	sigmaLJ =12
	# TYPE 9,10 	sigmaLJ =15
	# 1,3,5,7,9 exist - 2,4,6,8,10 new


# ===========DUMP THERMO and VARIABLES==============


variable press equal press
variable Up equal epair

compute rad all property/atom radius
variable pvf atom 4./3.*PI*c_rad*c_rad*c_rad/vol
compute packf all reduce sum v_pvf
variable packf equal c_packf

variable sxx equal -pxx
variable syy equal -pyy
variable szz equal -pzz
variable sxy equal -pxy
variable sxz equal -pxz
variable syz equal -pyz



compute         spa all stress/atom NULL
variable 	mps atom (c_spa[1]+c_spa[2]+c_spa[3])/3.0

variable 	pvol atom 4./3.*PI*c_rad*c_rad*c_rad

variable	mpsPos atom (1.0+v_mps/abs(v_mps))/2.0*v_mps/vol*atoms
variable	mpsNeg atom (1.0-v_mps/abs(v_mps))/2.0*v_mps/vol*atoms

compute		aMPSpos all reduce ave v_mpsPos
compute		aMPSneg all reduce ave v_mpsNeg





thermo_style	custom step atoms ke vol epair press c_packf v_sxx v_syy v_szz v_sxy v_sxz v_syz c_aMPSpos c_aMPSneg
thermo		100

#dump		dumpXX all custom 100 3_dumpXX.elastic_post id type x y z radius c_rad



variable imax equal 90		#=====Number of axial loading steps
variable jmax equal 80		#=====Number of shear loading steps
# THESE WERE 100 steps for i and 80 for j...

variable ms equal 1000		# number of minimize steps



# ===========POTENTIALS==============
pair_style table linear 4000
pair_coeff * * ../table.potential_SI Spring_CH-CH
WARNING: 2013 of 4000 force values in table are inconsistent with -dE/dr.
  Should only be flagged at inflection points (../pair_table.cpp:483)
WARNING: 860 of 4000 distance values in table with relative error
  over 1e-06 to re-computed values (../pair_table.cpp:492)

pair_coeff 1 1 ../table.potential_SI Spring_CH-CH
WARNING: 2013 of 4000 force values in table are inconsistent with -dE/dr.
  Should only be flagged at inflection points (../pair_table.cpp:483)
WARNING: 860 of 4000 distance values in table with relative error
  over 1e-06 to re-computed values (../pair_table.cpp:492)
pair_coeff 1 2 ../table.potential_SI Spring_CH-CH
WARNING: 2013 of 4000 force values in table are inconsistent with -dE/dr.
  Should only be flagged at inflection points (../pair_table.cpp:483)
WARNING: 860 of 4000 distance values in table with relative error
  over 1e-06 to re-computed values (../pair_table.cpp:492)
pair_coeff 1 3 ../table.potential_SI Spring_CH-CH
WARNING: 2013 of 4000 force values in table are inconsistent with -dE/dr.
  Should only be flagged at inflection points (../pair_table.cpp:483)
WARNING: 860 of 4000 distance values in table with relative error
  over 1e-06 to re-computed values (../pair_table.cpp:492)
pair_coeff 1 4 ../table.potential_SI Spring_CH-CaCO3
WARNING: 2031 of 4000 force values in table are inconsistent with -dE/dr.
  Should only be flagged at inflection points (../pair_table.cpp:483)
WARNING: 860 of 4000 distance values in table with relative error
  over 1e-06 to re-computed values (../pair_table.cpp:492)
pair_coeff 1 5 ../table.potential_SI Spring_CH-CaCO3
WARNING: 2031 of 4000 force values in table are inconsistent with -dE/dr.
  Should only be flagged at inflection points (../pair_table.cpp:483)
WARNING: 860 of 4000 distance values in table with relative error
  over 1e-06 to re-computed values (../pair_table.cpp:492)
pair_coeff 2 2 ../table.potential_SI Spring_CH-CH
WARNING: 2013 of 4000 force values in table are inconsistent with -dE/dr.
  Should only be flagged at inflection points (../pair_table.cpp:483)
WARNING: 860 of 4000 distance values in table with relative error
  over 1e-06 to re-computed values (../pair_table.cpp:492)
pair_coeff 2 3 ../table.potential_SI Spring_CH-CH
WARNING: 2013 of 4000 force values in table are inconsistent with -dE/dr.
  Should only be flagged at inflection points (../pair_table.cpp:483)
WARNING: 860 of 4000 distance values in table with relative error
  over 1e-06 to re-computed values (../pair_table.cpp:492)
pair_coeff 2 4 ../table.potential_SI Spring_CH-CaCO3
WARNING: 2031 of 4000 force values in table are inconsistent with -dE/dr.
  Should only be flagged at inflection points (../pair_table.cpp:483)
WARNING: 860 of 4000 distance values in table with relative error
  over 1e-06 to re-computed values (../pair_table.cpp:492)
pair_coeff 2 5 ../table.potential_SI Spring_CH-CaCO3
WARNING: 2031 of 4000 force values in table are inconsistent with -dE/dr.
  Should only be flagged at inflection points (../pair_table.cpp:483)
WARNING: 860 of 4000 distance values in table with relative error
  over 1e-06 to re-computed values (../pair_table.cpp:492)
pair_coeff 3 3 ../table.potential_SI Spring_CH-CH
WARNING: 2013 of 4000 force values in table are inconsistent with -dE/dr.
  Should only be flagged at inflection points (../pair_table.cpp:483)
WARNING: 860 of 4000 distance values in table with relative error
  over 1e-06 to re-computed values (../pair_table.cpp:492)
pair_coeff 3 4 ../table.potential_SI Spring_CH-CaCO3
WARNING: 2031 of 4000 force values in table are inconsistent with -dE/dr.
  Should only be flagged at inflection points (../pair_table.cpp:483)
WARNING: 860 of 4000 distance values in table with relative error
  over 1e-06 to re-computed values (../pair_table.cpp:492)
pair_coeff 3 5 ../table.potential_SI Spring_CH-CaCO3
WARNING: 2031 of 4000 force values in table are inconsistent with -dE/dr.
  Should only be flagged at inflection points (../pair_table.cpp:483)
WARNING: 860 of 4000 distance values in table with relative error
  over 1e-06 to re-computed values (../pair_table.cpp:492)
pair_coeff 4 4 ../table.potential_SI Spring_CaCO3-CaCO3
WARNING: 1991 of 4000 force values in table are inconsistent with -dE/dr.
  Should only be flagged at inflection points (../pair_table.cpp:483)
WARNING: 860 of 4000 distance values in table with relative error
  over 1e-06 to re-computed values (../pair_table.cpp:492)
pair_coeff 4 5 ../table.potential_SI Spring_CaCO3-CaCO3
WARNING: 1991 of 4000 force values in table are inconsistent with -dE/dr.
  Should only be flagged at inflection points (../pair_table.cpp:483)
WARNING: 860 of 4000 distance values in table with relative error
  over 1e-06 to re-computed values (../pair_table.cpp:492)
pair_coeff 5 5 ../table.potential_SI Spring_CaCO3-CaCO3
WARNING: 1991 of 4000 force values in table are inconsistent with -dE/dr.
  Should only be flagged at inflection points (../pair_table.cpp:483)
WARNING: 860 of 4000 distance values in table with relative error
  over 1e-06 to re-computed values (../pair_table.cpp:492)




neighbor	5e-7 bin
neigh_modify	delay 0 check no one 10000

run 0
WARNING: No fixes defined, atoms won't move (../verlet.cpp:52)
Neighbor list info ...
  update every 1 steps, delay 0 steps, check no
  max neighbors/atom: 10000, page size: 100000
  master list distance cutoff = 1.42259e-06
  ghost atom cutoff = 1.42259e-06
  binsize = 7.11297e-07, bins = 17 8 13
  1 neighbor lists, perpetual/occasional/extra = 1 0 0
  (1) pair table, perpetual
      attributes: half, newton on
      pair build: half/bin/atomonly/newton
      stencil: half/bin/3d/newton
      bin: standard
Per MPI rank memory allocation (min/avg/max) = 4.661 | 4.661 | 4.661 Mbytes
Step Atoms KinEng Volume E_pair Press c_packf v_sxx v_syy v_szz v_sxy v_sxz v_syz c_aMPSpos c_aMPSneg 
     388      886            0  5.27611e-16 -1.7051198e-10    -23605463    0.8792624     23289980     23687543     23838868   -108969.97   -434991.51    881482.43     23981765   -376301.99 
Loop time of 1.415e-06 on 1 procs for 0 steps with 886 atoms

141.3% CPU use with 1 MPI tasks x no OpenMP threads

MPI task timing breakdown:
Section |  min time  |  avg time  |  max time  |%varavg| %total
---------------------------------------------------------------
Pair    | 0          | 0          | 0          |   0.0 |  0.00
Neigh   | 0          | 0          | 0          |   0.0 |  0.00
Comm    | 0          | 0          | 0          |   0.0 |  0.00
Output  | 0          | 0          | 0          |   0.0 |  0.00
Modify  | 0          | 0          | 0          |   0.0 |  0.00
Other   |            | 1.415e-06  |            |       |100.00

Nlocal:    886 ave 886 max 886 min
Histogram: 1 0 0 0 0 0 0 0 0 0
Nghost:    1751 ave 1751 max 1751 min
Histogram: 1 0 0 0 0 0 0 0 0 0
Neighs:    7380 ave 7380 max 7380 min
Histogram: 1 0 0 0 0 0 0 0 0 0

Total # of neighbors = 7380
Ave neighs/atom = 8.32957
Neighbor list builds = 0
Dangerous builds not checked

min_style cg
min_modify dmax 1e-9
#minimize 0 0 $(v_ms) $(v_ms)




# ==== XX stress-strain curves


write_dump	all custom 3_dumpXX.elastic_post id type x y z radius c_rad v_mps v_mpsPos v_mpsNeg modify append no

print "eXX press epair packF sxx syy szz sxy sxz syz aveMPS+ aveMPS-" file 3_outXX_post.dat
eXX press epair packF sxx syy szz sxy sxz syz aveMPS+ aveMPS-
print "0.0 ${press} ${Up} $(c_packf) ${sxx} ${syy} ${szz} ${sxy} ${sxz} ${syz} $(c_aMPSpos) $(c_aMPSneg)" append 3_outXX_post.dat
0.0 -23605463.4488097 -1.70511976952429e-10 0.87926239637205061417 23289979.6621307 23687542.8908005 23838867.7934978 -108969.968486834 -434991.513067848 881482.430923567 23981765.443733267486 -376301.99492361664306


variable i loop ${imax}
variable i loop 90
variable eps equal v_i*v_i/400000
variable epre equal 0.0
variable factor equal 1.0+v_eps-v_epre

label loopXX

change_box all x scale $(v_factor) remap
change_box all x scale 1.0000024999999999054 remap
  orthogonal box = (-1.43921e-11 0 0) to (1.15137e-05 5.11718e-06 8.95507e-06)
minimize 0 0 $(v_ms) $(v_ms)
minimize 0 0 1000 $(v_ms)
minimize 0 0 1000 1000
WARNING: Using 'neigh_modify every 1 delay 0 check yes' setting during minimization (../min.cpp:168)
Per MPI rank memory allocation (min/avg/max) = 7.536 | 7.536 | 7.536 Mbytes
Step Atoms KinEng Volume E_pair Press c_packf v_sxx v_syy v_szz v_sxy v_sxz v_syz c_aMPSpos c_aMPSneg 
     388      886            0 5.2761232e-16 -1.7050687e-10    -23714532    0.8792602     23460789     23753765     23929043   -104398.32   -467148.09    877726.02     24088379   -373846.03 
     389      886            0 5.2761232e-16 -1.7050687e-10    -23714532    0.8792602     23460789     23753765     23929043   -104398.32   -467148.09    877726.02     24088379   -373846.03 
Loop time of 0.00151632 on 1 procs for 1 steps with 886 atoms

98.3% CPU use with 1 MPI tasks x no OpenMP threads

Minimization stats:
  Stopping criterion = linesearch alpha is zero
  Energy initial, next-to-last, final = 
    -1.70506869392e-10 -1.70506869392e-10 -1.70506869392e-10
  Force two-norm initial, final = 0.0017358 0.0017358
  Force max component initial, final = 0.000789559 0.000789559
  Final line search alpha, max atom move = 6.33265e-07 5e-10
  Iterations, force evaluations = 1 2

MPI task timing breakdown:
Section |  min time  |  avg time  |  max time  |%varavg| %total
---------------------------------------------------------------
Pair    | 0.00081647 | 0.00081647 | 0.00081647 |   0.0 | 53.85
Neigh   | 0          | 0          | 0          |   0.0 |  0.00
Comm    | 9.1899e-05 | 9.1899e-05 | 9.1899e-05 |   0.0 |  6.06
Output  | 0          | 0          | 0          |   0.0 |  0.00
Modify  | 0          | 0          | 0          |   0.0 |  0.00
Other   |            | 0.000608   |            |       | 40.09

Nlocal:    886 ave 886 max 886 min
Histogram: 1 0 0 0 0 0 0 0 0 0
Nghost:    1751 ave 1751 max 1751 min
Histogram: 1 0 0 0 0 0 0 0 0 0
Neighs:    7380 ave 7380 max 7380 min
Histogram: 1 0 0 0 0 0 0 0 0 0

Total # of neighbors = 7380
Ave neighs/atom = 8.32957
Neighbor list builds = 0
Dangerous builds not checked

print "${eps} ${press} ${Up} $(c_packf) ${sxx} ${syy} ${szz} ${sxy} ${sxz} ${syz} $(c_aMPSpos) $(c_aMPSneg)" append 3_outXX_post.dat
2.5e-06 -23714532.4869116 -1.70506869392043e-10 0.87926019822157819306 23460789.0608684 23753765.017668 23929043.3821984 -104398.322780112 -467148.094375147 877726.024462291 24088378.513156220317 -373846.02624459075741

variable factor delete
variable epre delete

variable epre equal $(v_eps)
variable epre equal 2.5000000000000002045e-06
variable factor equal 1.0+v_eps-v_epre

write_dump	all custom 3_dumpXX.elastic_post id type x y z radius c_rad v_mps v_mpsPos v_mpsNeg modify append yes

next i
jump SELF loopXX

change_box all x scale $(v_factor) remap
change_box all x scale 1.0000074999999999381 remap
  orthogonal box = (-5.75684e-11 0 0) to (1.15137e-05 5.11718e-06 8.95507e-06)
minimize 0 0 $(v_ms) $(v_ms)
minimize 0 0 1000 $(v_ms)
minimize 0 0 1000 1000
WARNING: Using 'neigh_modify every 1 delay 0 check yes' setting during minimization (../min.cpp:168)
Per MPI rank memory allocation (min/avg/max) = 7.536 | 7.536 | 7.536 Mbytes
Step Atoms KinEng Volume E_pair Press c_packf v_sxx v_syy v_szz v_sxy v_sxz v_syz c_aMPSpos c_aMPSneg 
     389      886            0 5.2761628e-16 -1.7049152e-10    -24041743    0.8792536     23973227     23952431     24199570   -90683.274    -563618.8    866456.94     24408444   -366700.99 
     390      886            0 5.2761628e-16 -1.7049152e-10    -24041743    0.8792536     23973227     23952431     24199570   -90683.274    -563618.8    866456.94     24408444   -366700.99 
Loop time of 0.00103301 on 1 procs for 1 steps with 886 atoms

98.4% CPU use with 1 MPI tasks x no OpenMP threads

Minimization stats:
  Stopping criterion = linesearch alpha is zero
  Energy initial, next-to-last, final = 
    -1.70491516292e-10 -1.70491516292e-10 -1.70491516292e-10
  Force two-norm initial, final = 0.00181811 0.00181811
  Force max component initial, final = 0.000789334 0.000789334
  Final line search alpha, max atom move = 6.33446e-07 5e-10
  Iterations, force evaluations = 1 2

MPI task timing breakdown:
Section |  min time  |  avg time  |  max time  |%varavg| %total
---------------------------------------------------------------
Pair    | 0.00055692 | 0.00055692 | 0.00055692 |   0.0 | 53.91
Neigh   | 0          | 0          | 0          |   0.0 |  0.00
Comm    | 6.3139e-05 | 6.3139e-05 | 6.3139e-05 |   0.0 |  6.11
Output  | 0          | 0          | 0          |   0.0 |  0.00
Modify  | 0          | 0          | 0          |   0.0 |  0.00
Other   |            | 0.000413   |            |       | 39.98

Nlocal:    886 ave 886 max 886 min
Histogram: 1 0 0 0 0 0 0 0 0 0
Nghost:    1751 ave 1751 max 1751 min
Histogram: 1 0 0 0 0 0 0 0 0 0
Neighs:    7380 ave 7380 max 7380 min
Histogram: 1 0 0 0 0 0 0 0 0 0

Total # of neighbors = 7380
Ave neighs/atom = 8.32957
Neighbor list builds = 0
Dangerous builds not checked

print "${eps} ${press} ${Up} $(c_packf) ${sxx} ${syy} ${szz} ${sxy} ${sxz} ${syz} $(c_aMPSpos) $(c_aMPSneg)" append 3_outXX_post.dat
1e-05 -24041742.6187567 -1.70491516291526e-10 0.87925360381953354683 23973227.2118892 23952431.0151607 24199569.6292202 -90683.273900557 -563618.802463228 866456.93718341 24408443.609669558704 -366700.99091282108566

variable factor delete
variable epre delete

variable epre equal $(v_eps)
variable epre equal 1.0000000000000000818e-05
variable factor equal 1.0+v_eps-v_epre

write_dump	all custom 3_dumpXX.elastic_post id type x y z radius c_rad v_mps v_mpsPos v_mpsNeg modify append yes

next i
jump SELF loopXX

change_box all x scale $(v_factor) remap
change_box all x scale 1.0000124999999999709 remap
  orthogonal box = (-1.2953e-10 0 0) to (1.15138e-05 5.11718e-06 8.95507e-06)
minimize 0 0 $(v_ms) $(v_ms)
minimize 0 0 1000 $(v_ms)
minimize 0 0 1000 1000
WARNING: Using 'neigh_modify every 1 delay 0 check yes' setting during minimization (../min.cpp:168)
Per MPI rank memory allocation (min/avg/max) = 7.536 | 7.536 | 7.536 Mbytes
Step Atoms KinEng Volume E_pair Press c_packf v_sxx v_syy v_szz v_sxy v_sxz v_syz c_aMPSpos c_aMPSneg 
     390      886            0 5.2762287e-16 -1.7046579e-10    -24587103   0.87924261     24827322     24283540     24650446   -67824.633   -724405.91    847674.88     24941920   -354817.08 
     391      886            0 5.2762287e-16 -1.7046579e-10    -24587103   0.87924261     24827322     24283540     24650446   -67824.633   -724405.91    847674.88     24941920   -354817.08 
Loop time of 0.000959824 on 1 procs for 1 steps with 886 atoms

99.5% CPU use with 1 MPI tasks x no OpenMP threads

Minimization stats:
  Stopping criterion = linesearch alpha is zero
  Energy initial, next-to-last, final = 
    -1.70465790292e-10 -1.70465790292e-10 -1.70465790292e-10
  Force two-norm initial, final = 0.00197815 0.00197815
  Force max component initial, final = 0.000788958 0.000788958
  Final line search alpha, max atom move = 6.33747e-07 5e-10
  Iterations, force evaluations = 1 2

MPI task timing breakdown:
Section |  min time  |  avg time  |  max time  |%varavg| %total
---------------------------------------------------------------
Pair    | 0.00051788 | 0.00051788 | 0.00051788 |   0.0 | 53.96
Neigh   | 0          | 0          | 0          |   0.0 |  0.00
Comm    | 5.5837e-05 | 5.5837e-05 | 5.5837e-05 |   0.0 |  5.82
Output  | 0          | 0          | 0          |   0.0 |  0.00
Modify  | 0          | 0          | 0          |   0.0 |  0.00
Other   |            | 0.0003861  |            |       | 40.23

Nlocal:    886 ave 886 max 886 min
Histogram: 1 0 0 0 0 0 0 0 0 0
Nghost:    1751 ave 1751 max 1751 min
Histogram: 1 0 0 0 0 0 0 0 0 0
Neighs:    7380 ave 7380 max 7380 min
Histogram: 1 0 0 0 0 0 0 0 0 0

Total # of neighbors = 7380
Ave neighs/atom = 8.32957
Neighbor list builds = 0
Dangerous builds not checked

print "${eps} ${press} ${Up} $(c_packf) ${sxx} ${syy} ${szz} ${sxy} ${sxz} ${syz} $(c_aMPSpos) $(c_aMPSneg)" append 3_outXX_post.dat
2.25e-05 -24587102.6858401 -1.70465790291623e-10 0.87924261328685504591 24827321.8956101 24283540.0955706 24650446.0663395 -67824.6328074885 -724405.907850931 847674.881704383 24941919.761979658157 -354817.07613959664013

variable factor delete
variable epre delete

variable epre equal $(v_eps)
variable epre equal 2.2500000000000001417e-05
variable factor equal 1.0+v_eps-v_epre

write_dump	all custom 3_dumpXX.elastic_post id type x y z radius c_rad v_mps v_mpsPos v_mpsNeg modify append yes

next i
jump SELF loopXX

change_box all x scale $(v_factor) remap
change_box all x scale 1.0000175000000000036 remap
  orthogonal box = (-2.30276e-10 0 0) to (1.15139e-05 5.11718e-06 8.95507e-06)
minimize 0 0 $(v_ms) $(v_ms)
minimize 0 0 1000 $(v_ms)
minimize 0 0 1000 1000
WARNING: Using 'neigh_modify every 1 delay 0 check yes' setting during minimization (../min.cpp:168)
Per MPI rank memory allocation (min/avg/max) = 7.536 | 7.536 | 7.536 Mbytes
Step Atoms KinEng Volume E_pair Press c_packf v_sxx v_syy v_szz v_sxy v_sxz v_syz c_aMPSpos c_aMPSneg 
     391      886            0 5.2763211e-16 -1.704294e-10    -25350628   0.87922723     26023122     24747092     25281671   -35820.961   -949514.86    821380.27     25689003   -338374.96 
     392      886            0 5.2763211e-16 -1.704294e-10    -25350628   0.87922723     26023122     24747092     25281671   -35820.961   -949514.86    821380.27     25689003   -338374.96 
Loop time of 0.000951253 on 1 procs for 1 steps with 886 atoms

99.9% CPU use with 1 MPI tasks x no OpenMP threads

Minimization stats:
  Stopping criterion = linesearch alpha is zero
  Energy initial, next-to-last, final = 
    -1.70429403937e-10 -1.70429403937e-10 -1.70429403937e-10
  Force two-norm initial, final = 0.00223959 0.00223959
  Force max component initial, final = 0.000892401 0.000892401
  Final line search alpha, max atom move = 5.60286e-07 5e-10
  Iterations, force evaluations = 1 2

MPI task timing breakdown:
Section |  min time  |  avg time  |  max time  |%varavg| %total
---------------------------------------------------------------
Pair    | 0.00049797 | 0.00049797 | 0.00049797 |   0.0 | 52.35
Neigh   | 0          | 0          | 0          |   0.0 |  0.00
Comm    | 6.2697e-05 | 6.2697e-05 | 6.2697e-05 |   0.0 |  6.59
Output  | 0          | 0          | 0          |   0.0 |  0.00
Modify  | 0          | 0          | 0          |   0.0 |  0.00
Other   |            | 0.0003906  |            |       | 41.06

Nlocal:    886 ave 886 max 886 min
Histogram: 1 0 0 0 0 0 0 0 0 0
Nghost:    1751 ave 1751 max 1751 min
Histogram: 1 0 0 0 0 0 0 0 0 0
Neighs:    7380 ave 7380 max 7380 min
Histogram: 1 0 0 0 0 0 0 0 0 0

Total # of neighbors = 7380
Ave neighs/atom = 8.32957
Neighbor list builds = 0
Dangerous builds not checked

print "${eps} ${press} ${Up} $(c_packf) ${sxx} ${syy} ${szz} ${sxy} ${sxz} ${syz} $(c_aMPSpos) $(c_aMPSneg)" append 3_outXX_post.dat
4e-05 -25350628.3780496 -1.70429403937432e-10 0.87922722681040388348 26023121.9490071 24747091.738132 25281671.4470097 -35820.9612128585 -949514.862098378 821380.274043849 25689003.338781937957 -338374.96073234739015

variable factor delete
variable epre delete

variable epre equal $(v_eps)
variable epre equal 4.0000000000000003272e-05
variable factor equal 1.0+v_eps-v_epre

write_dump	all custom 3_dumpXX.elastic_post id type x y z radius c_rad v_mps v_mpsPos v_mpsNeg modify append yes

next i
jump SELF loopXX

change_box all x scale $(v_factor) remap
change_box all x scale 1.0000225000000000364 remap
  orthogonal box = (-3.5981e-10 0 0) to (1.1514e-05 5.11718e-06 8.95507e-06)
minimize 0 0 $(v_ms) $(v_ms)
minimize 0 0 1000 $(v_ms)
minimize 0 0 1000 1000
WARNING: Using 'neigh_modify every 1 delay 0 check yes' setting during minimization (../min.cpp:168)
Per MPI rank memory allocation (min/avg/max) = 7.536 | 7.536 | 7.536 Mbytes
Step Atoms KinEng Volume E_pair Press c_packf v_sxx v_syy v_szz v_sxy v_sxz v_syz c_aMPSpos c_aMPSneg 
     392      886            0 5.2764398e-16 -1.7035339e-10    -26242643   0.87920744     27402543     25341121     25984264   -12293.154   -1107665.4    802200.73     26560436   -317792.67 
     393      886            0 5.2764398e-16 -1.7035339e-10    -26242643   0.87920744     27402543     25341121     25984264   -12293.154   -1107665.4    802200.73     26560436   -317792.67 
Loop time of 0.00097773 on 1 procs for 1 steps with 886 atoms

99.8% CPU use with 1 MPI tasks x no OpenMP threads

Minimization stats:
  Stopping criterion = linesearch alpha is zero
  Energy initial, next-to-last, final = 
    -1.70353389453e-10 -1.70353389453e-10 -1.70353389453e-10
  Force two-norm initial, final = 0.00244581 0.00244581
  Force max component initial, final = 0.00104029 0.00104029
  Final line search alpha, max atom move = 4.80635e-07 5e-10
  Iterations, force evaluations = 1 2

MPI task timing breakdown:
Section |  min time  |  avg time  |  max time  |%varavg| %total
---------------------------------------------------------------
Pair    | 0.00050287 | 0.00050287 | 0.00050287 |   0.0 | 51.43
Neigh   | 0          | 0          | 0          |   0.0 |  0.00
Comm    | 6.0417e-05 | 6.0417e-05 | 6.0417e-05 |   0.0 |  6.18
Output  | 0          | 0          | 0          |   0.0 |  0.00
Modify  | 0          | 0          | 0          |   0.0 |  0.00
Other   |            | 0.0004144  |            |       | 42.39

Nlocal:    886 ave 886 max 886 min
Histogram: 1 0 0 0 0 0 0 0 0 0
Nghost:    1751 ave 1751 max 1751 min
Histogram: 1 0 0 0 0 0 0 0 0 0
Neighs:    7380 ave 7380 max 7380 min
Histogram: 1 0 0 0 0 0 0 0 0 0

Total # of neighbors = 7380
Ave neighs/atom = 8.32957
Neighbor list builds = 0
Dangerous builds not checked

print "${eps} ${press} ${Up} $(c_packf) ${sxx} ${syy} ${szz} ${sxy} ${sxz} ${syz} $(c_aMPSpos) $(c_aMPSneg)" append 3_outXX_post.dat
6.25e-05 -26242642.9039957 -1.70353389453421e-10 0.87920744464288758113 27402543.2662551 25341121.3184235 25984264.1273086 -12293.1542376486 -1107665.43136714 802200.733311801 26560435.571548961103 -317792.66755325131817

variable factor delete
variable epre delete

variable epre equal $(v_eps)
variable epre equal 6.2500000000000001301e-05
variable factor equal 1.0+v_eps-v_epre

write_dump	all custom 3_dumpXX.elastic_post id type x y z radius c_rad v_mps v_mpsPos v_mpsNeg modify append yes

next i
jump SELF loopXX

change_box all x scale $(v_factor) remap
change_box all x scale 1.0000275000000000691 remap
  orthogonal box = (-5.18133e-10 0 0) to (1.15142e-05 5.11718e-06 8.95507e-06)
minimize 0 0 $(v_ms) $(v_ms)
minimize 0 0 1000 $(v_ms)
minimize 0 0 1000 1000
WARNING: Using 'neigh_modify every 1 delay 0 check yes' setting during minimization (../min.cpp:168)
Per MPI rank memory allocation (min/avg/max) = 7.536 | 7.536 | 7.536 Mbytes
Step Atoms KinEng Volume E_pair Press c_packf v_sxx v_syy v_szz v_sxy v_sxz v_syz c_aMPSpos c_aMPSneg 
     393      886            0 5.2765849e-16 -1.7018834e-10    -27133251   0.87918327     28736581     26062775     26600397   -22758.062   -1008727.7    811318.22     27426411   -293160.37 
     394      886            0 5.2765849e-16 -1.7018834e-10    -27133251   0.87918327     28736581     26062775     26600397   -22758.062   -1008727.7    811318.22     27426411   -293160.37 
Loop time of 0.000986967 on 1 procs for 1 steps with 886 atoms

98.3% CPU use with 1 MPI tasks x no OpenMP threads

Minimization stats:
  Stopping criterion = linesearch alpha is zero
  Energy initial, next-to-last, final = 
     -1.7018833667e-10  -1.7018833667e-10  -1.7018833667e-10
  Force two-norm initial, final = 0.00232788 0.00232788
  Force max component initial, final = 0.000955853 0.000955853
  Final line search alpha, max atom move = 5.23093e-07 5e-10
  Iterations, force evaluations = 1 2

MPI task timing breakdown:
Section |  min time  |  avg time  |  max time  |%varavg| %total
---------------------------------------------------------------
Pair    | 0.00052251 | 0.00052251 | 0.00052251 |   0.0 | 52.94
Neigh   | 0          | 0          | 0          |   0.0 |  0.00
Comm    | 5.7695e-05 | 5.7695e-05 | 5.7695e-05 |   0.0 |  5.85
Output  | 0          | 0          | 0          |   0.0 |  0.00
Modify  | 0          | 0          | 0          |   0.0 |  0.00
Other   |            | 0.0004068  |            |       | 41.21

Nlocal:    886 ave 886 max 886 min
Histogram: 1 0 0 0 0 0 0 0 0 0
Nghost:    1751 ave 1751 max 1751 min
Histogram: 1 0 0 0 0 0 0 0 0 0
Neighs:    7380 ave 7380 max 7380 min
Histogram: 1 0 0 0 0 0 0 0 0 0

Total # of neighbors = 7380
Ave neighs/atom = 8.32957
Neighbor list builds = 0
Dangerous builds not checked

print "${eps} ${press} ${Up} $(c_packf) ${sxx} ${syy} ${szz} ${sxy} ${sxz} ${syz} $(c_aMPSpos) $(c_aMPSneg)" append 3_outXX_post.dat
9e-05 -27133250.8981978 -1.70188336670152e-10 0.87918326710306293759 28736580.7249677 26062774.8148016 26600397.154824 -22758.0620185953 -1008727.71320964 811318.221624876 27426411.265999510884 -293160.36780177493347

variable factor delete
variable epre delete

variable epre equal $(v_eps)
variable epre equal 9.0000000000000005668e-05
variable factor equal 1.0+v_eps-v_epre

write_dump	all custom 3_dumpXX.elastic_post id type x y z radius c_rad v_mps v_mpsPos v_mpsNeg modify append yes

next i
jump SELF loopXX

change_box all x scale $(v_factor) remap
change_box all x scale 1.0000325000000001019 remap
  orthogonal box = (-7.05247e-10 0 0) to (1.15144e-05 5.11718e-06 8.95507e-06)
minimize 0 0 $(v_ms) $(v_ms)
minimize 0 0 1000 $(v_ms)
minimize 0 0 1000 1000
WARNING: Using 'neigh_modify every 1 delay 0 check yes' setting during minimization (../min.cpp:168)
Per MPI rank memory allocation (min/avg/max) = 7.536 | 7.536 | 7.536 Mbytes
Step Atoms KinEng Volume E_pair Press c_packf v_sxx v_syy v_szz v_sxy v_sxz v_syz c_aMPSpos c_aMPSneg 
     394      886            0 5.2767564e-16 -1.6995845e-10    -28185786   0.87915469     30313261     26915588     27328508   -35121.064   -891791.34    822095.12     28450892   -265106.19 
     395      886            0 5.2767564e-16 -1.6995845e-10    -28185786   0.87915469     30313261     26915588     27328508   -35121.064   -891791.34    822095.12     28450892   -265106.19 
Loop time of 0.000936638 on 1 procs for 1 steps with 886 atoms

99.7% CPU use with 1 MPI tasks x no OpenMP threads

Minimization stats:
  Stopping criterion = linesearch alpha is zero
  Energy initial, next-to-last, final = 
    -1.69958446962e-10 -1.69958446962e-10 -1.69958446962e-10
  Force two-norm initial, final = 0.0021946 0.0021946
  Force max component initial, final = 0.000856051 0.000856051
  Final line search alpha, max atom move = 5.84078e-07 5e-10
  Iterations, force evaluations = 1 2

MPI task timing breakdown:
Section |  min time  |  avg time  |  max time  |%varavg| %total
---------------------------------------------------------------
Pair    | 0.00049119 | 0.00049119 | 0.00049119 |   0.0 | 52.44
Neigh   | 0          | 0          | 0          |   0.0 |  0.00
Comm    | 6.4001e-05 | 6.4001e-05 | 6.4001e-05 |   0.0 |  6.83
Output  | 0          | 0          | 0          |   0.0 |  0.00
Modify  | 0          | 0          | 0          |   0.0 |  0.00
Other   |            | 0.0003814  |            |       | 40.72

Nlocal:    886 ave 886 max 886 min
Histogram: 1 0 0 0 0 0 0 0 0 0
Nghost:    1751 ave 1751 max 1751 min
Histogram: 1 0 0 0 0 0 0 0 0 0
Neighs:    7380 ave 7380 max 7380 min
Histogram: 1 0 0 0 0 0 0 0 0 0

Total # of neighbors = 7380
Ave neighs/atom = 8.32957
Neighbor list builds = 0
Dangerous builds not checked

print "${eps} ${press} ${Up} $(c_packf) ${sxx} ${syy} ${szz} ${sxy} ${sxz} ${syz} $(c_aMPSpos) $(c_aMPSneg)" append 3_outXX_post.dat
0.0001225 -28185785.5732598 -1.69958446962357e-10 0.87915469457549810794 30313260.8154209 26915587.8659632 27328508.0383954 -35121.0640161241 -891791.341167397 822095.121168228 28450891.767207928002 -265106.19394810847007

variable factor delete
variable epre delete

variable epre equal $(v_eps)
variable epre equal 0.00012249999999999999604
variable factor equal 1.0+v_eps-v_epre

write_dump	all custom 3_dumpXX.elastic_post id type x y z radius c_rad v_mps v_mpsPos v_mpsNeg modify append yes

next i
jump SELF loopXX

change_box all x scale $(v_factor) remap
change_box all x scale 1.0000374999999999126 remap
  orthogonal box = (-9.21155e-10 0 0) to (1.15146e-05 5.11718e-06 8.95507e-06)
minimize 0 0 $(v_ms) $(v_ms)
minimize 0 0 1000 $(v_ms)
minimize 0 0 1000 1000
WARNING: Using 'neigh_modify every 1 delay 0 check yes' setting during minimization (../min.cpp:168)
Per MPI rank memory allocation (min/avg/max) = 7.536 | 7.536 | 7.536 Mbytes
Step Atoms KinEng Volume E_pair Press c_packf v_sxx v_syy v_szz v_sxy v_sxz v_syz c_aMPSpos c_aMPSneg 
     395      886            0 5.2769543e-16 -1.695303e-10    -29400016   0.87912173     32132286     27899355     28168407   -49378.585   -756857.09    834530.61     29635817   -235801.32 
     396      886            0 5.2769543e-16 -1.695303e-10    -29400016   0.87912173     32132286     27899355     28168407   -49378.585   -756857.09    834530.61     29635817   -235801.32 
Loop time of 0.000970693 on 1 procs for 1 steps with 886 atoms

97.9% CPU use with 1 MPI tasks x no OpenMP threads

Minimization stats:
  Stopping criterion = linesearch alpha is zero
  Energy initial, next-to-last, final = 
     -1.6953029854e-10  -1.6953029854e-10  -1.6953029854e-10
  Force two-norm initial, final = 0.00205064 0.00205064
  Force max component initial, final = 0.000784829 0.000784829
  Final line search alpha, max atom move = 6.37081e-07 5e-10
  Iterations, force evaluations = 1 2

MPI task timing breakdown:
Section |  min time  |  avg time  |  max time  |%varavg| %total
---------------------------------------------------------------
Pair    | 0.0004985  | 0.0004985  | 0.0004985  |   0.0 | 51.35
Neigh   | 0          | 0          | 0          |   0.0 |  0.00
Comm    | 5.4769e-05 | 5.4769e-05 | 5.4769e-05 |   0.0 |  5.64
Output  | 0          | 0          | 0          |   0.0 |  0.00
Modify  | 0          | 0          | 0          |   0.0 |  0.00
Other   |            | 0.0004174  |            |       | 43.00

Nlocal:    886 ave 886 max 886 min
Histogram: 1 0 0 0 0 0 0 0 0 0
Nghost:    1751 ave 1751 max 1751 min
Histogram: 1 0 0 0 0 0 0 0 0 0
Neighs:    7380 ave 7380 max 7380 min
Histogram: 1 0 0 0 0 0 0 0 0 0

Total # of neighbors = 7380
Ave neighs/atom = 8.32957
Neighbor list builds = 0
Dangerous builds not checked

print "${eps} ${press} ${Up} $(c_packf) ${sxx} ${syy} ${szz} ${sxy} ${sxz} ${syz} $(c_aMPSpos) $(c_aMPSneg)" append 3_outXX_post.dat
0.00016 -29400016.052416 -1.69530298540266e-10 0.87912172751071193666 32132286.1013469 27899355.2909016 28168406.7649995 -49378.5848683387 -756857.089220708 834530.614876875 29635817.371972169727 -235801.31955621857196

variable factor delete
variable epre delete

variable epre equal $(v_eps)
variable epre equal 0.00016000000000000001309
variable factor equal 1.0+v_eps-v_epre

write_dump	all custom 3_dumpXX.elastic_post id type x y z radius c_rad v_mps v_mpsPos v_mpsNeg modify append yes

next i
jump SELF loopXX

change_box all x scale $(v_factor) remap
change_box all x scale 1.0000424999999999454 remap
  orthogonal box = (-1.16586e-09 0 0) to (1.15148e-05 5.11718e-06 8.95507e-06)
minimize 0 0 $(v_ms) $(v_ms)
minimize 0 0 1000 $(v_ms)
minimize 0 0 1000 1000
WARNING: Using 'neigh_modify every 1 delay 0 check yes' setting during minimization (../min.cpp:168)
Per MPI rank memory allocation (min/avg/max) = 7.536 | 7.536 | 7.536 Mbytes
Step Atoms KinEng Volume E_pair Press c_packf v_sxx v_syy v_szz v_sxy v_sxz v_syz c_aMPSpos c_aMPSneg 
     396      886            0 5.2771785e-16 -1.6901116e-10    -30776193   0.87908437     34194090     29014241     29120248   -65532.529   -603927.95    848621.09     30983783   -207590.17 
     397      886            0 5.2771785e-16 -1.6901116e-10    -30776193   0.87908437     34194090     29014241     29120248   -65532.529   -603927.95    848621.09     30983783   -207590.17 
Loop time of 0.000943749 on 1 procs for 1 steps with 886 atoms

99.8% CPU use with 1 MPI tasks x no OpenMP threads

Minimization stats:
  Stopping criterion = linesearch alpha is zero
  Energy initial, next-to-last, final = 
    -1.69011163418e-10 -1.69011163418e-10 -1.69011163418e-10
  Force two-norm initial, final = 0.00190309 0.00190309
  Force max component initial, final = 0.00078355 0.00078355
  Final line search alpha, max atom move = 6.38122e-07 5e-10
  Iterations, force evaluations = 1 2

MPI task timing breakdown:
Section |  min time  |  avg time  |  max time  |%varavg| %total
---------------------------------------------------------------
Pair    | 0.00049974 | 0.00049974 | 0.00049974 |   0.0 | 52.95
Neigh   | 0          | 0          | 0          |   0.0 |  0.00
Comm    | 5.7162e-05 | 5.7162e-05 | 5.7162e-05 |   0.0 |  6.06
Output  | 0          | 0          | 0          |   0.0 |  0.00
Modify  | 0          | 0          | 0          |   0.0 |  0.00
Other   |            | 0.0003869  |            |       | 40.99

Nlocal:    886 ave 886 max 886 min
Histogram: 1 0 0 0 0 0 0 0 0 0
Nghost:    1751 ave 1751 max 1751 min
Histogram: 1 0 0 0 0 0 0 0 0 0
Neighs:    7380 ave 7380 max 7380 min
Histogram: 1 0 0 0 0 0 0 0 0 0

Total # of neighbors = 7380
Ave neighs/atom = 8.32957
Neighbor list builds = 0
Dangerous builds not checked

print "${eps} ${press} ${Up} $(c_packf) ${sxx} ${syy} ${szz} ${sxy} ${sxz} ${syz} $(c_aMPSpos) $(c_aMPSneg)" append 3_outXX_post.dat
0.0002025 -30776192.9866892 -1.69011163418334e-10 0.87908436642511067483 34194090.0614882 29014241.3259686 29120247.5726107 -65532.5293295466 -603927.952994477 848621.090245881 30983783.155422478914 -207590.16873334764387

variable factor delete
variable epre delete

variable epre equal $(v_eps)
variable epre equal 0.00020249999999999998904
variable factor equal 1.0+v_eps-v_epre

write_dump	all custom 3_dumpXX.elastic_post id type x y z radius c_rad v_mps v_mpsPos v_mpsNeg modify append yes

next i
jump SELF loopXX

change_box all x scale $(v_factor) remap
change_box all x scale 1.0000474999999999781 remap
  orthogonal box = (-1.43936e-09 0 0) to (1.15151e-05 5.11718e-06 8.95507e-06)
minimize 0 0 $(v_ms) $(v_ms)
minimize 0 0 1000 $(v_ms)
minimize 0 0 1000 1000
WARNING: Using 'neigh_modify every 1 delay 0 check yes' setting during minimization (../min.cpp:168)
Per MPI rank memory allocation (min/avg/max) = 7.536 | 7.536 | 7.536 Mbytes
Step Atoms KinEng Volume E_pair Press c_packf v_sxx v_syy v_szz v_sxy v_sxz v_syz c_aMPSpos c_aMPSneg 
     397      886            0 5.2774292e-16 -1.6840603e-10    -32314367   0.87904261     36498799     30260262     30184039   -83572.029   -432991.71    864366.19     32493246   -178879.37 
     398      886            0 5.2774292e-16 -1.6840603e-10    -32314367   0.87904261     36498799     30260262     30184039   -83572.029   -432991.71    864366.19     32493246   -178879.37 
Loop time of 0.000971847 on 1 procs for 1 steps with 886 atoms

97.8% CPU use with 1 MPI tasks x no OpenMP threads

Minimization stats:
  Stopping criterion = linesearch alpha is zero
  Energy initial, next-to-last, final = 
    -1.68406028512e-10 -1.68406028512e-10 -1.68406028512e-10
  Force two-norm initial, final = 0.00176271 0.00176271
  Force max component initial, final = 0.00078212 0.00078212
  Final line search alpha, max atom move = 6.39288e-07 5e-10
  Iterations, force evaluations = 1 2

MPI task timing breakdown:
Section |  min time  |  avg time  |  max time  |%varavg| %total
---------------------------------------------------------------
Pair    | 0.00050404 | 0.00050404 | 0.00050404 |   0.0 | 51.86
Neigh   | 0          | 0          | 0          |   0.0 |  0.00
Comm    | 5.8397e-05 | 5.8397e-05 | 5.8397e-05 |   0.0 |  6.01
Output  | 0          | 0          | 0          |   0.0 |  0.00
Modify  | 0          | 0          | 0          |   0.0 |  0.00
Other   |            | 0.0004094  |            |       | 42.13

Nlocal:    886 ave 886 max 886 min
Histogram: 1 0 0 0 0 0 0 0 0 0
Nghost:    1751 ave 1751 max 1751 min
Histogram: 1 0 0 0 0 0 0 0 0 0
Neighs:    7380 ave 7380 max 7380 min
Histogram: 1 0 0 0 0 0 0 0 0 0

Total # of neighbors = 7380
Ave neighs/atom = 8.32957
Neighbor list builds = 0
Dangerous builds not checked

print "${eps} ${press} ${Up} $(c_packf) ${sxx} ${syy} ${szz} ${sxy} ${sxz} ${syz} $(c_aMPSpos) $(c_aMPSneg)" append 3_outXX_post.dat
0.00025 -32314366.5011317 -1.68406028511924e-10 0.87904261190105104085 36498798.9607049 30260261.7089077 30184038.8337824 -83572.0286796378 -432991.713280116 864366.191474313 32493245.875389888883 -178879.37425824953243

variable factor delete
variable epre delete

variable epre equal $(v_eps)
variable epre equal 0.0002500000000000000052
variable factor equal 1.0+v_eps-v_epre

write_dump	all custom 3_dumpXX.elastic_post id type x y z radius c_rad v_mps v_mpsPos v_mpsNeg modify append yes

next i
jump SELF loopXX

change_box all x scale $(v_factor) remap
change_box all x scale 1.0000525000000000109 remap
  orthogonal box = (-1.74167e-09 0 0) to (1.15154e-05 5.11718e-06 8.95507e-06)
minimize 0 0 $(v_ms) $(v_ms)
minimize 0 0 1000 $(v_ms)
minimize 0 0 1000 1000
WARNING: Using 'neigh_modify every 1 delay 0 check yes' setting during minimization (../min.cpp:168)
Per MPI rank memory allocation (min/avg/max) = 7.536 | 7.536 | 7.536 Mbytes
Step Atoms KinEng Volume E_pair Press c_packf v_sxx v_syy v_szz v_sxy v_sxz v_syz c_aMPSpos c_aMPSneg 
     398      886            0 5.2777063e-16 -1.6773257e-10    -34015576   0.87899646     39048284     31637491     31360953   -103298.28   -245438.03    881605.31     34169373   -153797.39 
     399      886            0 5.2777063e-16 -1.6773257e-10    -34015576   0.87899646     39048284     31637491     31360953   -103298.28   -245438.03    881605.31     34169373   -153797.39 
Loop time of 0.00140524 on 1 procs for 1 steps with 886 atoms

95.7% CPU use with 1 MPI tasks x no OpenMP threads

Minimization stats:
  Stopping criterion = linesearch alpha is zero
  Energy initial, next-to-last, final = 
     -1.6773256787e-10  -1.6773256787e-10  -1.6773256787e-10
  Force two-norm initial, final = 0.00164612 0.00164612
  Force max component initial, final = 0.000780538 0.000780538
  Final line search alpha, max atom move = 6.40584e-07 5e-10
  Iterations, force evaluations = 1 2

MPI task timing breakdown:
Section |  min time  |  avg time  |  max time  |%varavg| %total
---------------------------------------------------------------
Pair    | 0.00079321 | 0.00079321 | 0.00079321 |   0.0 | 56.45
Neigh   | 0          | 0          | 0          |   0.0 |  0.00
Comm    | 9.7826e-05 | 9.7826e-05 | 9.7826e-05 |   0.0 |  6.96
Output  | 0          | 0          | 0          |   0.0 |  0.00
Modify  | 0          | 0          | 0          |   0.0 |  0.00
Other   |            | 0.0005142  |            |       | 36.59

Nlocal:    886 ave 886 max 886 min
Histogram: 1 0 0 0 0 0 0 0 0 0
Nghost:    1751 ave 1751 max 1751 min
Histogram: 1 0 0 0 0 0 0 0 0 0
Neighs:    7380 ave 7380 max 7380 min
Histogram: 1 0 0 0 0 0 0 0 0 0

Total # of neighbors = 7380
Ave neighs/atom = 8.32957
Neighbor list builds = 0
Dangerous builds not checked

print "${eps} ${press} ${Up} $(c_packf) ${sxx} ${syy} ${szz} ${sxy} ${sxz} ${syz} $(c_aMPSpos) $(c_aMPSneg)" append 3_outXX_post.dat
0.0003025 -34015576.0997407 -1.6773256787021e-10 0.87899646458665958715 39048283.7191739 31637491.3924815 31360953.1875667 -103298.280605697 -245438.026822353 881605.310317686 34169373.486863449216 -153797.38712278674939

variable factor delete
variable epre delete

variable epre equal $(v_eps)
variable epre equal 0.00030249999999999998028
variable factor equal 1.0+v_eps-v_epre

write_dump	all custom 3_dumpXX.elastic_post id type x y z radius c_rad v_mps v_mpsPos v_mpsNeg modify append yes

next i
jump SELF loopXX

change_box all x scale $(v_factor) remap
change_box all x scale 1.0000575000000000436 remap
  orthogonal box = (-2.07279e-09 0 0) to (1.15157e-05 5.11718e-06 8.95507e-06)
minimize 0 0 $(v_ms) $(v_ms)
minimize 0 0 1000 $(v_ms)
minimize 0 0 1000 1000
WARNING: Using 'neigh_modify every 1 delay 0 check yes' setting during minimization (../min.cpp:168)
Per MPI rank memory allocation (min/avg/max) = 7.536 | 7.536 | 7.536 Mbytes
Step Atoms KinEng Volume E_pair Press c_packf v_sxx v_syy v_szz v_sxy v_sxz v_syz c_aMPSpos c_aMPSneg 
     399      886            0 5.2780097e-16 -1.669737e-10    -35879659   0.87894593     41842339     33145851     32650786   -124766.76     -41036.3    900370.45     36010615   -130956.53 
     400      886            0 5.2780097e-16 -1.653371e-10    -35073786   0.87894593     41150653     32492593     31578111   -163925.31    389178.34    425005.88     35392586   -318800.91 
     401      886            0 5.2780097e-16 -1.653371e-10    -35073786   0.87894593     41150653     32492593     31578111   -163925.31    389178.34    425005.88     35392586   -318800.91 
Loop time of 0.00195519 on 1 procs for 2 steps with 886 atoms

98.5% CPU use with 1 MPI tasks x no OpenMP threads

Minimization stats:
  Stopping criterion = linesearch alpha is zero
  Energy initial, next-to-last, final = 
    -1.66973704588e-10 -1.65337095841e-10 -1.65337095841e-10
  Force two-norm initial, final = 0.00157341 0.000828713
  Force max component initial, final = 0.000778806 0.000298602
  Final line search alpha, max atom move = 1.67447e-06 5e-10
  Iterations, force evaluations = 2 4

MPI task timing breakdown:
Section |  min time  |  avg time  |  max time  |%varavg| %total
---------------------------------------------------------------
Pair    | 0.0010134  | 0.0010134  | 0.0010134  |   0.0 | 51.83
Neigh   | 0          | 0          | 0          |   0.0 |  0.00
Comm    | 0.00013499 | 0.00013499 | 0.00013499 |   0.0 |  6.90
Output  | 0.00034263 | 0.00034263 | 0.00034263 |   0.0 | 17.52
Modify  | 0          | 0          | 0          |   0.0 |  0.00
Other   |            | 0.0004642  |            |       | 23.74

Nlocal:    886 ave 886 max 886 min
Histogram: 1 0 0 0 0 0 0 0 0 0
Nghost:    1751 ave 1751 max 1751 min
Histogram: 1 0 0 0 0 0 0 0 0 0
Neighs:    7380 ave 7380 max 7380 min
Histogram: 1 0 0 0 0 0 0 0 0 0

Total # of neighbors = 7380
Ave neighs/atom = 8.32957
Neighbor list builds = 0
Dangerous builds not checked

print "${eps} ${press} ${Up} $(c_packf) ${sxx} ${syy} ${szz} ${sxy} ${sxz} ${syz} $(c_aMPSpos) $(c_aMPSneg)" append 3_outXX_post.dat
0.00036 -35073785.5375161 -1.65337095840874e-10 0.87894592519598713221 41150653.0923965 32492592.9933997 31578110.5267521 -163925.314045126 389178.337419455 425005.878855863 35392586.447959631681 -318800.91044357034843

variable factor delete
variable epre delete

variable epre equal $(v_eps)
variable epre equal 0.00036000000000000002267
variable factor equal 1.0+v_eps-v_epre

write_dump	all custom 3_dumpXX.elastic_post id type x y z radius c_rad v_mps v_mpsPos v_mpsNeg modify append yes

next i
jump SELF loopXX

change_box all x scale $(v_factor) remap
change_box all x scale 1.0000625000000000764 remap
  orthogonal box = (-2.43272e-09 0 0) to (1.15161e-05 5.11718e-06 8.95507e-06)
minimize 0 0 $(v_ms) $(v_ms)
minimize 0 0 1000 $(v_ms)
minimize 0 0 1000 1000
WARNING: Using 'neigh_modify every 1 delay 0 check yes' setting during minimization (../min.cpp:168)
Per MPI rank memory allocation (min/avg/max) = 7.536 | 7.536 | 7.536 Mbytes
Step Atoms KinEng Volume E_pair Press c_packf v_sxx v_syy v_szz v_sxy v_sxz v_syz c_aMPSpos c_aMPSneg 
     401      886            0 5.2783396e-16 -1.6450408e-10    -37800828   0.87889099     45424101     34147173     33831208   -49568.737   -414601.21    331220.14     37900335   -99507.355 
     402      886            0 5.2783396e-16 -1.6450408e-10    -37800828   0.87889099     45424101     34147173     33831208   -49568.737   -414601.21    331220.14     37900335   -99507.355 
Loop time of 0.000949437 on 1 procs for 1 steps with 886 atoms

99.7% CPU use with 1 MPI tasks x no OpenMP threads

Minimization stats:
  Stopping criterion = linesearch alpha is zero
  Energy initial, next-to-last, final = 
    -1.64504078658e-10 -1.64504078658e-10 -1.64504078658e-10
  Force two-norm initial, final = 0.00108608 0.00108608
  Force max component initial, final = 0.000468003 0.000468003
  Final line search alpha, max atom move = 1.06837e-06 5e-10
  Iterations, force evaluations = 1 2

MPI task timing breakdown:
Section |  min time  |  avg time  |  max time  |%varavg| %total
---------------------------------------------------------------
Pair    | 0.00050742 | 0.00050742 | 0.00050742 |   0.0 | 53.44
Neigh   | 0          | 0          | 0          |   0.0 |  0.00
Comm    | 5.8147e-05 | 5.8147e-05 | 5.8147e-05 |   0.0 |  6.12
Output  | 0          | 0          | 0          |   0.0 |  0.00
Modify  | 0          | 0          | 0          |   0.0 |  0.00
Other   |            | 0.0003839  |            |       | 40.43

Nlocal:    886 ave 886 max 886 min
Histogram: 1 0 0 0 0 0 0 0 0 0
Nghost:    1751 ave 1751 max 1751 min
Histogram: 1 0 0 0 0 0 0 0 0 0
Neighs:    7380 ave 7380 max 7380 min
Histogram: 1 0 0 0 0 0 0 0 0 0

Total # of neighbors = 7380
Ave neighs/atom = 8.32957
Neighbor list builds = 0
Dangerous builds not checked

print "${eps} ${press} ${Up} $(c_packf) ${sxx} ${syy} ${szz} ${sxy} ${sxz} ${syz} $(c_aMPSpos) $(c_aMPSneg)" append 3_outXX_post.dat
0.0004225 -37800827.5086056 -1.64504078657719e-10 0.87889099450883367837 45424101.4570295 34147173.0543185 33831208.0144689 -49568.7368538055 -414601.2097699 331220.136768492 37900334.863680712879 -99507.355075203391607

variable factor delete
variable epre delete

variable epre equal $(v_eps)
variable epre equal 0.00042250000000000002397
variable factor equal 1.0+v_eps-v_epre

write_dump	all custom 3_dumpXX.elastic_post id type x y z radius c_rad v_mps v_mpsPos v_mpsNeg modify append yes

next i
jump SELF loopXX

change_box all x scale $(v_factor) remap
change_box all x scale 1.0000675000000001091 remap
  orthogonal box = (-2.82147e-09 0 0) to (1.15165e-05 5.11718e-06 8.95507e-06)
minimize 0 0 $(v_ms) $(v_ms)
minimize 0 0 1000 $(v_ms)
minimize 0 0 1000 1000
WARNING: Using 'neigh_modify every 1 delay 0 check yes' setting during minimization (../min.cpp:168)
Per MPI rank memory allocation (min/avg/max) = 7.536 | 7.536 | 7.536 Mbytes
Step Atoms KinEng Volume E_pair Press c_packf v_sxx v_syy v_szz v_sxy v_sxz v_syz c_aMPSpos c_aMPSneg 
     402      886            0 5.2786959e-16 -1.6334971e-10    -40537934   0.87883167     49672935     35929289     36011578    33082.204   -978200.57    263855.08     40619442    -81508.02 
     403      886            0 5.2786959e-16 -1.6334971e-10    -40537934   0.87883167     49672935     35929289     36011578    33082.204   -978200.57    263855.08     40619442    -81508.02 
Loop time of 0.000979472 on 1 procs for 1 steps with 886 atoms

97.7% CPU use with 1 MPI tasks x no OpenMP threads

Minimization stats:
  Stopping criterion = linesearch alpha is zero
  Energy initial, next-to-last, final = 
    -1.63349713135e-10 -1.63349713135e-10 -1.63349713135e-10
  Force two-norm initial, final = 0.0019504 0.0019504
  Force max component initial, final = 0.000992903 0.000992903
  Final line search alpha, max atom move = 5.03574e-07 5e-10
  Iterations, force evaluations = 1 2

MPI task timing breakdown:
Section |  min time  |  avg time  |  max time  |%varavg| %total
---------------------------------------------------------------
Pair    | 0.00050549 | 0.00050549 | 0.00050549 |   0.0 | 51.61
Neigh   | 0          | 0          | 0          |   0.0 |  0.00
Comm    | 5.5028e-05 | 5.5028e-05 | 5.5028e-05 |   0.0 |  5.62
Output  | 0          | 0          | 0          |   0.0 |  0.00
Modify  | 0          | 0          | 0          |   0.0 |  0.00
Other   |            | 0.000419   |            |       | 42.77

Nlocal:    886 ave 886 max 886 min
Histogram: 1 0 0 0 0 0 0 0 0 0
Nghost:    1751 ave 1751 max 1751 min
Histogram: 1 0 0 0 0 0 0 0 0 0
Neighs:    7380 ave 7380 max 7380 min
Histogram: 1 0 0 0 0 0 0 0 0 0

Total # of neighbors = 7380
Ave neighs/atom = 8.32957
Neighbor list builds = 0
Dangerous builds not checked

print "${eps} ${press} ${Up} $(c_packf) ${sxx} ${syy} ${szz} ${sxy} ${sxz} ${syz} $(c_aMPSpos) $(c_aMPSneg)" append 3_outXX_post.dat
0.00049 -40537934.1373932 -1.63349713134852e-10 0.87883167337086887105 49672935.2496245 35929289.1965446 36011577.9660106 33082.204480225 -978200.568103613 263855.081182402 40619442.157302327454 -81508.019909061258659

variable factor delete
variable epre delete

variable epre equal $(v_eps)
variable epre equal 0.00048999999999999998418
variable factor equal 1.0+v_eps-v_epre

write_dump	all custom 3_dumpXX.elastic_post id type x y z radius c_rad v_mps v_mpsPos v_mpsNeg modify append yes

next i
jump SELF loopXX

change_box all x scale $(v_factor) remap
change_box all x scale 1.0000724999999999199 remap
  orthogonal box = (-3.23905e-09 0 0) to (1.15169e-05 5.11718e-06 8.95507e-06)
minimize 0 0 $(v_ms) $(v_ms)
minimize 0 0 1000 $(v_ms)
minimize 0 0 1000 1000
WARNING: Using 'neigh_modify every 1 delay 0 check yes' setting during minimization (../min.cpp:168)
Per MPI rank memory allocation (min/avg/max) = 7.536 | 7.536 | 7.536 Mbytes
Step Atoms KinEng Volume E_pair Press c_packf v_sxx v_syy v_szz v_sxy v_sxz v_syz c_aMPSpos c_aMPSneg 
     403      886            0 5.2790786e-16 -1.6189691e-10    -42886241   0.87876796     53193539     37830433     37634752    5605.6212   -717389.08    287951.95     42954669   -68428.169 
     404      886            0 5.2790786e-16 -1.6189691e-10    -42886241   0.87876796     53193539     37830433     37634752    5605.6212   -717389.08    287951.95     42954669   -68428.169 
Loop time of 0.000952436 on 1 procs for 1 steps with 886 atoms

99.8% CPU use with 1 MPI tasks x no OpenMP threads

Minimization stats:
  Stopping criterion = linesearch alpha is zero
  Energy initial, next-to-last, final = 
    -1.61896913752e-10 -1.61896913752e-10 -1.61896913752e-10
  Force two-norm initial, final = 0.00158175 0.00158175
  Force max component initial, final = 0.000770132 0.000770132
  Final line search alpha, max atom move = 6.49239e-07 5e-10
  Iterations, force evaluations = 1 2

MPI task timing breakdown:
Section |  min time  |  avg time  |  max time  |%varavg| %total
---------------------------------------------------------------
Pair    | 0.00050722 | 0.00050722 | 0.00050722 |   0.0 | 53.26
Neigh   | 0          | 0          | 0          |   0.0 |  0.00
Comm    | 5.8254e-05 | 5.8254e-05 | 5.8254e-05 |   0.0 |  6.12
Output  | 0          | 0          | 0          |   0.0 |  0.00
Modify  | 0          | 0          | 0          |   0.0 |  0.00
Other   |            | 0.000387   |            |       | 40.63

Nlocal:    886 ave 886 max 886 min
Histogram: 1 0 0 0 0 0 0 0 0 0
Nghost:    1751 ave 1751 max 1751 min
Histogram: 1 0 0 0 0 0 0 0 0 0
Neighs:    7380 ave 7380 max 7380 min
Histogram: 1 0 0 0 0 0 0 0 0 0

Total # of neighbors = 7380
Ave neighs/atom = 8.32957
Neighbor list builds = 0
Dangerous builds not checked

print "${eps} ${press} ${Up} $(c_packf) ${sxx} ${syy} ${szz} ${sxy} ${sxz} ${syz} $(c_aMPSpos) $(c_aMPSneg)" append 3_outXX_post.dat
0.0005625 -42886241.1206611 -1.6189691375237e-10 0.878767962693558502 53193538.8185796 37830432.5932094 37634751.9501942 5605.62116178727 -717389.080862161 287951.94712352 42954669.289580091834 -68428.168919033982093

variable factor delete
variable epre delete

variable epre equal $(v_eps)
variable epre equal 0.0005624999999999999575
variable factor equal 1.0+v_eps-v_epre

write_dump	all custom 3_dumpXX.elastic_post id type x y z radius c_rad v_mps v_mpsPos v_mpsNeg modify append yes

next i
jump SELF loopXX

change_box all x scale $(v_factor) remap
change_box all x scale 1.0000774999999999526 remap
  orthogonal box = (-3.68545e-09 0 0) to (1.15174e-05 5.11718e-06 8.95507e-06)
minimize 0 0 $(v_ms) $(v_ms)
minimize 0 0 1000 $(v_ms)
minimize 0 0 1000 1000
WARNING: Using 'neigh_modify every 1 delay 0 check yes' setting during minimization (../min.cpp:168)
Per MPI rank memory allocation (min/avg/max) = 7.536 | 7.536 | 7.536 Mbytes
Step Atoms KinEng Volume E_pair Press c_packf v_sxx v_syy v_szz v_sxy v_sxz v_syz c_aMPSpos c_aMPSneg 
     404      886            0 5.2794877e-16 -1.6030063e-10    -45396770   0.87869986     56957883     39862624     39369803    -23774.21   -438553.36    313707.59     45456169   -59398.997 
     405      886            0 5.2794877e-16 -1.6030063e-10    -45396770   0.87869986     56957883     39862624     39369803    -23774.21   -438553.36    313707.59     45456169   -59398.997 
Loop time of 0.00114317 on 1 procs for 1 steps with 886 atoms

94.6% CPU use with 1 MPI tasks x no OpenMP threads

Minimization stats:
  Stopping criterion = linesearch alpha is zero
  Energy initial, next-to-last, final = 
    -1.60300625703e-10 -1.60300625703e-10 -1.60300625703e-10
  Force two-norm initial, final = 0.0012181 0.0012181
  Force max component initial, final = 0.000531928 0.000531928
  Final line search alpha, max atom move = 9.39977e-07 5e-10
  Iterations, force evaluations = 1 2

MPI task timing breakdown:
Section |  min time  |  avg time  |  max time  |%varavg| %total
---------------------------------------------------------------
Pair    | 0.00058313 | 0.00058313 | 0.00058313 |   0.0 | 51.01
Neigh   | 0          | 0          | 0          |   0.0 |  0.00
Comm    | 7.0106e-05 | 7.0106e-05 | 7.0106e-05 |   0.0 |  6.13
Output  | 0          | 0          | 0          |   0.0 |  0.00
Modify  | 0          | 0          | 0          |   0.0 |  0.00
Other   |            | 0.0004899  |            |       | 42.86

Nlocal:    886 ave 886 max 886 min
Histogram: 1 0 0 0 0 0 0 0 0 0
Nghost:    1751 ave 1751 max 1751 min
Histogram: 1 0 0 0 0 0 0 0 0 0
Neighs:    7380 ave 7380 max 7380 min
Histogram: 1 0 0 0 0 0 0 0 0 0

Total # of neighbors = 7380
Ave neighs/atom = 8.32957
Neighbor list builds = 0
Dangerous builds not checked

print "${eps} ${press} ${Up} $(c_packf) ${sxx} ${syy} ${szz} ${sxy} ${sxz} ${syz} $(c_aMPSpos) $(c_aMPSneg)" append 3_outXX_post.dat
0.00064 -45396769.875386 -1.60300625703331e-10 0.8786998634541588471 56957882.5546602 39862624.2893729 39369802.7821249 -23774.2099658276 -438553.36477042 313707.594362484 45456168.872249007225 -59398.996863001862948

variable factor delete
variable epre delete

variable epre equal $(v_eps)
variable epre equal 0.00064000000000000005235
variable factor equal 1.0+v_eps-v_epre

write_dump	all custom 3_dumpXX.elastic_post id type x y z radius c_rad v_mps v_mpsPos v_mpsNeg modify append yes

next i
jump SELF loopXX

change_box all x scale $(v_factor) remap
change_box all x scale 1.0000824999999999854 remap
  orthogonal box = (-4.1607e-09 0 0) to (1.15178e-05 5.11718e-06 8.95507e-06)
minimize 0 0 $(v_ms) $(v_ms)
minimize 0 0 1000 $(v_ms)
minimize 0 0 1000 1000
WARNING: Using 'neigh_modify every 1 delay 0 check yes' setting during minimization (../min.cpp:168)
Per MPI rank memory allocation (min/avg/max) = 7.536 | 7.536 | 7.536 Mbytes
Step Atoms KinEng Volume E_pair Press c_packf v_sxx v_syy v_szz v_sxy v_sxz v_syz c_aMPSpos c_aMPSneg 
     405      886            0 5.2799233e-16 -1.5815341e-10    -48069885   0.87862738     60966925     42025289     41217442   -54855.152   -143198.13     340956.6     48122299   -52413.704 
     406      886            0 5.2799233e-16 -1.5815341e-10    -48069885   0.87862738     60966925     42025289     41217442   -54855.152   -143198.13     340956.6     48122299   -52413.704 
Loop time of 0.00097153 on 1 procs for 1 steps with 886 atoms

98.8% CPU use with 1 MPI tasks x no OpenMP threads

Minimization stats:
  Stopping criterion = linesearch alpha is zero
  Energy initial, next-to-last, final = 
    -1.58153413377e-10 -1.58153413377e-10 -1.58153413377e-10
  Force two-norm initial, final = 0.00090953 0.00090953
  Force max component initial, final = 0.00027965 0.00027965
  Final line search alpha, max atom move = 1.78795e-06 5e-10
  Iterations, force evaluations = 1 2

MPI task timing breakdown:
Section |  min time  |  avg time  |  max time  |%varavg| %total
---------------------------------------------------------------
Pair    | 0.00050686 | 0.00050686 | 0.00050686 |   0.0 | 52.17
Neigh   | 0          | 0          | 0          |   0.0 |  0.00
Comm    | 6.589e-05  | 6.589e-05  | 6.589e-05  |   0.0 |  6.78
Output  | 0          | 0          | 0          |   0.0 |  0.00
Modify  | 0          | 0          | 0          |   0.0 |  0.00
Other   |            | 0.0003988  |            |       | 41.05

Nlocal:    886 ave 886 max 886 min
Histogram: 1 0 0 0 0 0 0 0 0 0
Nghost:    1751 ave 1751 max 1751 min
Histogram: 1 0 0 0 0 0 0 0 0 0
Neighs:    7380 ave 7380 max 7380 min
Histogram: 1 0 0 0 0 0 0 0 0 0

Total # of neighbors = 7380
Ave neighs/atom = 8.32957
Neighbor list builds = 0
Dangerous builds not checked

print "${eps} ${press} ${Up} $(c_packf) ${sxx} ${syy} ${szz} ${sxy} ${sxz} ${syz} $(c_aMPSpos) $(c_aMPSneg)" append 3_outXX_post.dat
0.0007225 -48069885.2066078 -1.58153413377183e-10 0.87862737669555468489 60966924.8663528 42025289.0506088 41217441.7028618 -54855.1523231132 -143198.127027423 340956.601354207 48122298.910681881011 -52413.7040740598095

variable factor delete
variable epre delete

variable epre equal $(v_eps)
variable epre equal 0.0007225000000000000519
variable factor equal 1.0+v_eps-v_epre

write_dump	all custom 3_dumpXX.elastic_post id type x y z radius c_rad v_mps v_mpsPos v_mpsNeg modify append yes

next i
jump SELF loopXX

change_box all x scale $(v_factor) remap
change_box all x scale 1.0000875000000000181 remap
  orthogonal box = (-4.66478e-09 0 0) to (1.15183e-05 5.11718e-06 8.95507e-06)
minimize 0 0 $(v_ms) $(v_ms)
minimize 0 0 1000 $(v_ms)
minimize 0 0 1000 1000
WARNING: Using 'neigh_modify every 1 delay 0 check yes' setting during minimization (../min.cpp:168)
Per MPI rank memory allocation (min/avg/max) = 7.536 | 7.536 | 7.536 Mbytes
Step Atoms KinEng Volume E_pair Press c_packf v_sxx v_syy v_szz v_sxy v_sxz v_syz c_aMPSpos c_aMPSneg 
     406      886            0 5.2803853e-16 -1.5577085e-10    -50906849    0.8785505     65222813     44318928     43178806   -87556.289    167856.59    369605.13     50952371   -45522.407 
     408      886            0 5.2803853e-16 -1.5760951e-10    -49953853    0.8785505     64372722     42951174     42537665    22250.012   -950019.85    265749.76     49981426   -27572.911 
Loop time of 0.00119638 on 1 procs for 2 steps with 886 atoms

98.6% CPU use with 1 MPI tasks x no OpenMP threads

Minimization stats:
  Stopping criterion = linesearch alpha is zero
  Energy initial, next-to-last, final = 
    -1.55770845074e-10 -1.57609511307e-10 -1.57609511307e-10
  Force two-norm initial, final = 0.000777784 0.00180791
  Force max component initial, final = 0.00022665 0.000953244
  Final line search alpha, max atom move = 4.11091e-07 3.91871e-10
  Iterations, force evaluations = 2 3

MPI task timing breakdown:
Section |  min time  |  avg time  |  max time  |%varavg| %total
---------------------------------------------------------------
Pair    | 0.00066233 | 0.00066233 | 0.00066233 |   0.0 | 55.36
Neigh   | 0          | 0          | 0          |   0.0 |  0.00
Comm    | 7.7636e-05 | 7.7636e-05 | 7.7636e-05 |   0.0 |  6.49
Output  | 0          | 0          | 0          |   0.0 |  0.00
Modify  | 0          | 0          | 0          |   0.0 |  0.00
Other   |            | 0.0004564  |            |       | 38.15

Nlocal:    886 ave 886 max 886 min
Histogram: 1 0 0 0 0 0 0 0 0 0
Nghost:    1751 ave 1751 max 1751 min
Histogram: 1 0 0 0 0 0 0 0 0 0
Neighs:    7380 ave 7380 max 7380 min
Histogram: 1 0 0 0 0 0 0 0 0 0

Total # of neighbors = 7380
Ave neighs/atom = 8.32957
Neighbor list builds = 0
Dangerous builds not checked

print "${eps} ${press} ${Up} $(c_packf) ${sxx} ${syy} ${szz} ${sxy} ${sxz} ${syz} $(c_aMPSpos) $(c_aMPSneg)" append 3_outXX_post.dat
0.00081 -49953853.4080423 -1.57609511306854e-10 0.87855050352649344259 64372721.7133265 42951173.6664328 42537664.8443677 22250.0122645482 -950019.852109417 265749.760342173 49981426.318784587085 -27572.910742285017477

variable factor delete
variable epre delete

variable epre equal $(v_eps)
variable epre equal 0.00080999999999999995615
variable factor equal 1.0+v_eps-v_epre

write_dump	all custom 3_dumpXX.elastic_post id type x y z radius c_rad v_mps v_mpsPos v_mpsNeg modify append yes

next i
jump SELF loopXX

change_box all x scale $(v_factor) remap
change_box all x scale 1.0000925000000000509 remap
  orthogonal box = (-5.19772e-09 0 0) to (1.15189e-05 5.11718e-06 8.95507e-06)
minimize 0 0 $(v_ms) $(v_ms)
minimize 0 0 1000 $(v_ms)
minimize 0 0 1000 1000
WARNING: Using 'neigh_modify every 1 delay 0 check yes' setting during minimization (../min.cpp:168)
Per MPI rank memory allocation (min/avg/max) = 7.536 | 7.536 | 7.536 Mbytes
Step Atoms KinEng Volume E_pair Press c_packf v_sxx v_syy v_szz v_sxy v_sxz v_syz c_aMPSpos c_aMPSneg 
     408      886            0 5.2808737e-16 -1.551164e-10    -52950703   0.87846925     68868300     45375909     44607901   -12864.516   -617219.79    296488.65     52972318   -21614.882 
     409      886            0 5.2808737e-16 -1.551164e-10    -52950703   0.87846925     68868300     45375909     44607901   -12864.516   -617219.79    296488.65     52972318   -21614.882 
Loop time of 0.000985415 on 1 procs for 1 steps with 886 atoms

99.8% CPU use with 1 MPI tasks x no OpenMP threads

Minimization stats:
  Stopping criterion = linesearch alpha is zero
  Energy initial, next-to-last, final = 
    -1.55116395298e-10 -1.55116395298e-10 -1.55116395298e-10
  Force two-norm initial, final = 0.0013183 0.0013183
  Force max component initial, final = 0.000670451 0.000670451
  Final line search alpha, max atom move = 7.45767e-07 5e-10
  Iterations, force evaluations = 1 2

MPI task timing breakdown:
Section |  min time  |  avg time  |  max time  |%varavg| %total
---------------------------------------------------------------
Pair    | 0.0005057  | 0.0005057  | 0.0005057  |   0.0 | 51.32
Neigh   | 0          | 0          | 0          |   0.0 |  0.00
Comm    | 6.825e-05  | 6.825e-05  | 6.825e-05  |   0.0 |  6.93
Output  | 0          | 0          | 0          |   0.0 |  0.00
Modify  | 0          | 0          | 0          |   0.0 |  0.00
Other   |            | 0.0004115  |            |       | 41.76

Nlocal:    886 ave 886 max 886 min
Histogram: 1 0 0 0 0 0 0 0 0 0
Nghost:    1751 ave 1751 max 1751 min
Histogram: 1 0 0 0 0 0 0 0 0 0
Neighs:    7380 ave 7380 max 7380 min
Histogram: 1 0 0 0 0 0 0 0 0 0

Total # of neighbors = 7380
Ave neighs/atom = 8.32957
Neighbor list builds = 0
Dangerous builds not checked

print "${eps} ${press} ${Up} $(c_packf) ${sxx} ${syy} ${szz} ${sxy} ${sxz} ${syz} $(c_aMPSpos) $(c_aMPSneg)" append 3_outXX_post.dat
0.0009025 -52950703.2604935 -1.5511639529808e-10 0.87846924512132928964 68868299.7731229 45375909.3119876 44607900.69637 -12864.5162790445 -617219.790173958 296488.648165452 52972318.142115548253 -21614.881621979788179

variable factor delete
variable epre delete

variable epre equal $(v_eps)
variable epre equal 0.00090249999999999998192
variable factor equal 1.0+v_eps-v_epre

write_dump	all custom 3_dumpXX.elastic_post id type x y z radius c_rad v_mps v_mpsPos v_mpsNeg modify append yes

next i
jump SELF loopXX

change_box all x scale $(v_factor) remap
change_box all x scale 1.0000975000000000836 remap
  orthogonal box = (-5.75952e-09 0 0) to (1.15194e-05 5.11718e-06 8.95507e-06)
minimize 0 0 $(v_ms) $(v_ms)
minimize 0 0 1000 $(v_ms)
minimize 0 0 1000 1000
WARNING: Using 'neigh_modify every 1 delay 0 check yes' setting during minimization (../min.cpp:168)
Per MPI rank memory allocation (min/avg/max) = 7.536 | 7.536 | 7.536 Mbytes
Step Atoms KinEng Volume E_pair Press c_packf v_sxx v_syy v_szz v_sxy v_sxz v_syz c_aMPSpos c_aMPSneg 
     409      886            0 5.2813886e-16 -1.5198167e-10    -56109240    0.8783836     73607322     47930987     46789411   -49864.545   -266470.27    328893.61     56127110   -17870.408 
     410      886            0 5.2813886e-16 -1.5198167e-10    -56109240    0.8783836     73607322     47930987     46789411   -49864.545   -266470.27    328893.61     56127110   -17870.408 
Loop time of 0.00133233 on 1 procs for 1 steps with 886 atoms

89.5% CPU use with 1 MPI tasks x no OpenMP threads

Minimization stats:
  Stopping criterion = linesearch alpha is zero
  Energy initial, next-to-last, final = 
    -1.51981673915e-10 -1.51981673915e-10 -1.51981673915e-10
  Force two-norm initial, final = 0.00084919 0.00084919
  Force max component initial, final = 0.000372343 0.000372343
  Final line search alpha, max atom move = 1.34285e-06 5e-10
  Iterations, force evaluations = 1 2

MPI task timing breakdown:
Section |  min time  |  avg time  |  max time  |%varavg| %total
---------------------------------------------------------------
Pair    | 0.0005961  | 0.0005961  | 0.0005961  |   0.0 | 44.74
Neigh   | 0          | 0          | 0          |   0.0 |  0.00
Comm    | 6.6571e-05 | 6.6571e-05 | 6.6571e-05 |   0.0 |  5.00
Output  | 0          | 0          | 0          |   0.0 |  0.00
Modify  | 0          | 0          | 0          |   0.0 |  0.00
Other   |            | 0.0006697  |            |       | 50.26

Nlocal:    886 ave 886 max 886 min
Histogram: 1 0 0 0 0 0 0 0 0 0
Nghost:    1751 ave 1751 max 1751 min
Histogram: 1 0 0 0 0 0 0 0 0 0
Neighs:    7380 ave 7380 max 7380 min
Histogram: 1 0 0 0 0 0 0 0 0 0

Total # of neighbors = 7380
Ave neighs/atom = 8.32957
Neighbor list builds = 0
Dangerous builds not checked

print "${eps} ${press} ${Up} $(c_packf) ${sxx} ${syy} ${szz} ${sxy} ${sxz} ${syz} $(c_aMPSpos) $(c_aMPSneg)" append 3_outXX_post.dat
0.001 -56109239.8159222 -1.51981673915143e-10 0.87838360272007076635 73607322.2835684 47930986.5513435 46789410.6128547 -49864.5449469862 -266470.271241919 328893.611101445 56127110.223574146628 -17870.407651901616191

variable factor delete
variable epre delete

variable epre equal $(v_eps)
variable epre equal 0.0010000000000000000208
variable factor equal 1.0+v_eps-v_epre

write_dump	all custom 3_dumpXX.elastic_post id type x y z radius c_rad v_mps v_mpsPos v_mpsNeg modify append yes

next i
jump SELF loopXX

change_box all x scale $(v_factor) remap
change_box all x scale 1.0001024999999998943 remap
  orthogonal box = (-6.35019e-09 0 0) to (1.152e-05 5.11718e-06 8.95507e-06)
minimize 0 0 $(v_ms) $(v_ms)
minimize 0 0 1000 $(v_ms)
minimize 0 0 1000 1000
WARNING: Using 'neigh_modify every 1 delay 0 check yes' setting during minimization (../min.cpp:168)
Per MPI rank memory allocation (min/avg/max) = 7.536 | 7.536 | 7.536 Mbytes
Step Atoms KinEng Volume E_pair Press c_packf v_sxx v_syy v_szz v_sxy v_sxz v_syz c_aMPSpos c_aMPSneg 
     410      886            0 5.2819299e-16 -1.4854019e-10    -59433146   0.87829358     78596250     50616923     49086264   -88184.428    97916.506    362470.88     59447084   -13938.208 
     411      886            0 5.2819299e-16 -1.4854019e-10    -59433146   0.87829358     78596250     50616923     49086264   -88184.428    97916.506    362470.88     59447084   -13938.208 
Loop time of 0.000960226 on 1 procs for 1 steps with 886 atoms

99.9% CPU use with 1 MPI tasks x no OpenMP threads

Minimization stats:
  Stopping criterion = linesearch alpha is zero
  Energy initial, next-to-last, final = 
    -1.48540185556e-10 -1.48540185556e-10 -1.48540185556e-10
  Force two-norm initial, final = 0.000560204 0.000560204
  Force max component initial, final = 0.000104231 0.000104231
  Final line search alpha, max atom move = 4.79702e-06 5e-10
  Iterations, force evaluations = 1 2

MPI task timing breakdown:
Section |  min time  |  avg time  |  max time  |%varavg| %total
---------------------------------------------------------------
Pair    | 0.00050307 | 0.00050307 | 0.00050307 |   0.0 | 52.39
Neigh   | 0          | 0          | 0          |   0.0 |  0.00
Comm    | 6.7411e-05 | 6.7411e-05 | 6.7411e-05 |   0.0 |  7.02
Output  | 0          | 0          | 0          |   0.0 |  0.00
Modify  | 0          | 0          | 0          |   0.0 |  0.00
Other   |            | 0.0003897  |            |       | 40.59

Nlocal:    886 ave 886 max 886 min
Histogram: 1 0 0 0 0 0 0 0 0 0
Nghost:    1751 ave 1751 max 1751 min
Histogram: 1 0 0 0 0 0 0 0 0 0
Neighs:    7380 ave 7380 max 7380 min
Histogram: 1 0 0 0 0 0 0 0 0 0

Total # of neighbors = 7380
Ave neighs/atom = 8.32957
Neighbor list builds = 0
Dangerous builds not checked

print "${eps} ${press} ${Up} $(c_packf) ${sxx} ${syy} ${szz} ${sxy} ${sxz} ${syz} $(c_aMPSpos) $(c_aMPSneg)" append 3_outXX_post.dat
0.0011025 -59433145.559804 -1.48540185556169e-10 0.87829357762836546275 78596249.5861499 50616923.3732935 49086263.7199686 -88184.4275604111 97916.5057415627 362470.88207748 59447083.768268570304 -13938.20846466859075

variable factor delete
variable epre delete

variable epre equal $(v_eps)
variable epre equal 0.0011024999999999999644
variable factor equal 1.0+v_eps-v_epre

write_dump	all custom 3_dumpXX.elastic_post id type x y z radius c_rad v_mps v_mpsPos v_mpsNeg modify append yes

next i
jump SELF loopXX

change_box all x scale $(v_factor) remap
change_box all x scale 1.0001074999999999271 remap
  orthogonal box = (-6.96973e-09 0 0) to (1.15206e-05 5.11718e-06 8.95507e-06)
minimize 0 0 $(v_ms) $(v_ms)
minimize 0 0 1000 $(v_ms)
minimize 0 0 1000 1000
WARNING: Using 'neigh_modify every 1 delay 0 check yes' setting during minimization (../min.cpp:168)
Per MPI rank memory allocation (min/avg/max) = 7.536 | 7.536 | 7.536 Mbytes
Step Atoms KinEng Volume E_pair Press c_packf v_sxx v_syy v_szz v_sxy v_sxz v_syz c_aMPSpos c_aMPSneg 
     411      886            0 5.2824978e-16 -1.4463189e-10    -62919332   0.87819917     83829830     53433418     51494747   -128382.09    480154.67    397691.44     63085674   -166342.17 
     419      886            0 5.2824978e-16 -1.5109156e-10    -49799785   0.87819917     69261702     43374728     36762926   -259987.74    -152001.5    239297.14     49816023   -16237.886 
Loop time of 0.00278864 on 1 procs for 8 steps with 886 atoms

98.5% CPU use with 1 MPI tasks x no OpenMP threads

Minimization stats:
  Stopping criterion = linesearch alpha is zero
  Energy initial, next-to-last, final = 
     -1.4463188535e-10 -1.51091555744e-10 -1.51091555744e-10
  Force two-norm initial, final = 0.000771966 0.000382887
  Force max component initial, final = 0.000279713 0.000107571
  Final line search alpha, max atom move = 3.4071e-06 3.66504e-10
  Iterations, force evaluations = 8 11

MPI task timing breakdown:
Section |  min time  |  avg time  |  max time  |%varavg| %total
---------------------------------------------------------------
Pair    | 0.0018693  | 0.0018693  | 0.0018693  |   0.0 | 67.03
Neigh   | 0          | 0          | 0          |   0.0 |  0.00
Comm    | 0.00025521 | 0.00025521 | 0.00025521 |   0.0 |  9.15
Output  | 0          | 0          | 0          |   0.0 |  0.00
Modify  | 0          | 0          | 0          |   0.0 |  0.00
Other   |            | 0.0006641  |            |       | 23.81

Nlocal:    886 ave 886 max 886 min
Histogram: 1 0 0 0 0 0 0 0 0 0
Nghost:    1751 ave 1751 max 1751 min
Histogram: 1 0 0 0 0 0 0 0 0 0
Neighs:    7380 ave 7380 max 7380 min
Histogram: 1 0 0 0 0 0 0 0 0 0

Total # of neighbors = 7380
Ave neighs/atom = 8.32957
Neighbor list builds = 0
Dangerous builds not checked

print "${eps} ${press} ${Up} $(c_packf) ${sxx} ${syy} ${szz} ${sxy} ${sxz} ${syz} $(c_aMPSpos) $(c_aMPSneg)" append 3_outXX_post.dat
0.00121 -49799785.401887 -1.51091555744266e-10 0.87819917121748025668 69261702.1010678 43374727.8960248 36762926.2085684 -259987.736749085 -152001.498512422 239297.135716879 49816023.287890180945 -16237.886003137849912

variable factor delete
variable epre delete

variable epre equal $(v_eps)
variable epre equal 0.0012099999999999999211
variable factor equal 1.0+v_eps-v_epre

write_dump	all custom 3_dumpXX.elastic_post id type x y z radius c_rad v_mps v_mpsPos v_mpsNeg modify append yes

next i
jump SELF loopXX

change_box all x scale $(v_factor) remap
change_box all x scale 1.0001124999999999599 remap
  orthogonal box = (-7.61816e-09 0 0) to (1.15213e-05 5.11718e-06 8.95507e-06)
minimize 0 0 $(v_ms) $(v_ms)
minimize 0 0 1000 $(v_ms)
minimize 0 0 1000 1000
WARNING: Using 'neigh_modify every 1 delay 0 check yes' setting during minimization (../min.cpp:168)
Per MPI rank memory allocation (min/avg/max) = 7.536 | 7.536 | 7.536 Mbytes
Step Atoms KinEng Volume E_pair Press c_packf v_sxx v_syy v_szz v_sxy v_sxz v_syz c_aMPSpos c_aMPSneg 
     419      886            0 5.283092e-16 -1.4759568e-10    -53704557   0.87810038     75190369     46328245     39595057   -251781.41   -126955.02    234486.25     53713937   -9380.1547 
     421      886            0 5.283092e-16 -1.4787564e-10    -53260945   0.87810038     74585359     46014697     39182778   -259245.97   -114467.56    237564.33     53266781   -5836.1305 
Loop time of 0.00133319 on 1 procs for 2 steps with 886 atoms

99.7% CPU use with 1 MPI tasks x no OpenMP threads

Minimization stats:
  Stopping criterion = linesearch alpha is zero
  Energy initial, next-to-last, final = 
    -1.47595679055e-10 -1.47875644133e-10 -1.47875644133e-10
  Force two-norm initial, final = 0.000398612 0.000193766
  Force max component initial, final = 0.000107912 2.22406e-05
  Final line search alpha, max atom move = 1.81333e-05 4.03294e-10
  Iterations, force evaluations = 2 4

MPI task timing breakdown:
Section |  min time  |  avg time  |  max time  |%varavg| %total
---------------------------------------------------------------
Pair    | 0.00081323 | 0.00081323 | 0.00081323 |   0.0 | 61.00
Neigh   | 0          | 0          | 0          |   0.0 |  0.00
Comm    | 9.1316e-05 | 9.1316e-05 | 9.1316e-05 |   0.0 |  6.85
Output  | 0          | 0          | 0          |   0.0 |  0.00
Modify  | 0          | 0          | 0          |   0.0 |  0.00
Other   |            | 0.0004286  |            |       | 32.15

Nlocal:    886 ave 886 max 886 min
Histogram: 1 0 0 0 0 0 0 0 0 0
Nghost:    1751 ave 1751 max 1751 min
Histogram: 1 0 0 0 0 0 0 0 0 0
Neighs:    7380 ave 7380 max 7380 min
Histogram: 1 0 0 0 0 0 0 0 0 0

Total # of neighbors = 7380
Ave neighs/atom = 8.32957
Neighbor list builds = 0
Dangerous builds not checked

print "${eps} ${press} ${Up} $(c_packf) ${sxx} ${syy} ${szz} ${sxy} ${sxz} ${syz} $(c_aMPSpos) $(c_aMPSneg)" append 3_outXX_post.dat
0.0013225 -53260944.6184824 -1.47875644132806e-10 0.87810038492415187772 74585359.446968 46014696.6313147 39182777.7771647 -259245.972418899 -114467.560809863 237564.326580542 53266780.748955972493 -5836.1304735255916967

variable factor delete
variable epre delete

variable epre equal $(v_eps)
variable epre equal 0.0013225000000000001078
variable factor equal 1.0+v_eps-v_epre

write_dump	all custom 3_dumpXX.elastic_post id type x y z radius c_rad v_mps v_mpsPos v_mpsNeg modify append yes

next i
jump SELF loopXX

change_box all x scale $(v_factor) remap
change_box all x scale 1.0001174999999999926 remap
  orthogonal box = (-8.29548e-09 0 0) to (1.1522e-05 5.11718e-06 8.95507e-06)
minimize 0 0 $(v_ms) $(v_ms)
minimize 0 0 1000 $(v_ms)
minimize 0 0 1000 1000
WARNING: Using 'neigh_modify every 1 delay 0 check yes' setting during minimization (../min.cpp:168)
Per MPI rank memory allocation (min/avg/max) = 7.536 | 7.536 | 7.536 Mbytes
Step Atoms KinEng Volume E_pair Press c_packf v_sxx v_syy v_szz v_sxy v_sxz v_syz c_aMPSpos c_aMPSneg 
     421      886            0 5.2837128e-16 -1.4387149e-10    -57339502   0.87799722     80779214     49098920     42140371   -250679.28   -88423.637    232534.47     57339983   -481.29715 
     423      886            0 5.2837128e-16 -1.4391243e-10    -55879127   0.87799722     78889620     48063638     40684125   -278676.64   -133931.65    272030.17     55901827   -22699.831 
Loop time of 0.00137892 on 1 procs for 2 steps with 886 atoms

98.6% CPU use with 1 MPI tasks x no OpenMP threads

Minimization stats:
  Stopping criterion = linesearch alpha is zero
  Energy initial, next-to-last, final = 
    -1.43871494025e-10 -1.43912427074e-10 -1.43912427074e-10
  Force two-norm initial, final = 0.00022678 0.000347489
  Force max component initial, final = 2.31992e-05 6.59695e-05
  Final line search alpha, max atom move = 6.08747e-06 4.01587e-10
  Iterations, force evaluations = 2 4

MPI task timing breakdown:
Section |  min time  |  avg time  |  max time  |%varavg| %total
---------------------------------------------------------------
Pair    | 0.0008474  | 0.0008474  | 0.0008474  |   0.0 | 61.45
Neigh   | 0          | 0          | 0          |   0.0 |  0.00
Comm    | 9.726e-05  | 9.726e-05  | 9.726e-05  |   0.0 |  7.05
Output  | 0          | 0          | 0          |   0.0 |  0.00
Modify  | 0          | 0          | 0          |   0.0 |  0.00
Other   |            | 0.0004343  |            |       | 31.49

Nlocal:    886 ave 886 max 886 min
Histogram: 1 0 0 0 0 0 0 0 0 0
Nghost:    1751 ave 1751 max 1751 min
Histogram: 1 0 0 0 0 0 0 0 0 0
Neighs:    7380 ave 7380 max 7380 min
Histogram: 1 0 0 0 0 0 0 0 0 0

Total # of neighbors = 7380
Ave neighs/atom = 8.32957
Neighbor list builds = 0
[...]
Step Atoms KinEng Volume E_pair Press c_packf v_sxx v_syy v_szz v_sxy v_sxz v_syz c_aMPSpos c_aMPSneg 
     984      886            0  5.27611e-16 4.4079434e-09 2.8816179e+08    0.8792624 -4.4251044e+08 -4.479801e+08     26005160 4.5705617e+08   -2232392.1    77734.768    3880847.2 -2.9204264e+08 
     985      886            0  5.27611e-16 4.4079434e-09 2.8816179e+08    0.8792624 -4.4251044e+08 -4.479801e+08     26005160 4.5705617e+08   -2232392.1    77734.768    3880847.2 -2.9204264e+08 
Loop time of 0.00106872 on 1 procs for 1 steps with 886 atoms

99.7% CPU use with 1 MPI tasks x no OpenMP threads

Minimization stats:
  Stopping criterion = linesearch alpha is zero
  Energy initial, next-to-last, final = 
     4.40794339122e-09  4.40794339122e-09  4.40794339122e-09
  Force two-norm initial, final = 0.013681 0.013681
  Force max component initial, final = 0.00809078 0.00809078
  Final line search alpha, max atom move = 6.17988e-08 5e-10
  Iterations, force evaluations = 1 2

MPI task timing breakdown:
Section |  min time  |  avg time  |  max time  |%varavg| %total
---------------------------------------------------------------
Pair    | 0.00060163 | 0.00060163 | 0.00060163 |   0.0 | 56.29
Neigh   | 0          | 0          | 0          |   0.0 |  0.00
Comm    | 6.0315e-05 | 6.0315e-05 | 6.0315e-05 |   0.0 |  5.64
Output  | 0          | 0          | 0          |   0.0 |  0.00
Modify  | 0          | 0          | 0          |   0.0 |  0.00
Other   |            | 0.0004068  |            |       | 38.06

Nlocal:    886 ave 886 max 886 min
Histogram: 1 0 0 0 0 0 0 0 0 0
Nghost:    1751 ave 1751 max 1751 min
Histogram: 1 0 0 0 0 0 0 0 0 0
Neighs:    7385 ave 7385 max 7385 min
Histogram: 1 0 0 0 0 0 0 0 0 0

Total # of neighbors = 7385
Ave neighs/atom = 8.33521
Neighbor list builds = 0
Dangerous builds not checked

print "${gamxy} ${press} ${Up} $(c_packf) ${sxx} ${syy} ${szz} ${sxy} ${sxz} ${syz} $(c_aMPSpos) $(c_aMPSneg)" append 3_outXY_post.dat
0.038038 288161792.487497 4.4079433912226e-09 0.87926239637205061417 -442510438.775356 -447980098.426017 26005159.7388807 457056174.641887 -2232392.08044194 77734.7678213256 3880847.2470475495793 -292042639.73454529047

write_dump	all custom 3_dumpXY.elastic_post id type x y z radius c_rad v_mps v_mpsPos v_mpsNeg modify append yes

next j
jump SELF loopXY

change_box all xy delta $(v_dtilt) remap
change_box all xy delta 1.5566475848993601315e-08 remap
  triclinic box = (0 0 0) to (1.15137e-05 5.11718e-06 8.95507e-06) with tilt (2.10214e-07 0 0)
minimize 0 0 $(v_ms) $(v_ms)
minimize 0 0 1000 $(v_ms)
minimize 0 0 1000 1000
WARNING: Using 'neigh_modify every 1 delay 0 check yes' setting during minimization (../min.cpp:168)
Per MPI rank memory allocation (min/avg/max) = 7.538 | 7.538 | 7.538 Mbytes
Step Atoms KinEng Volume E_pair Press c_packf v_sxx v_syy v_szz v_sxy v_sxz v_syz c_aMPSpos c_aMPSneg 
     985      886            0  5.27611e-16 5.1726348e-09  3.11705e+08    0.8792624 -4.6969837e+08 -4.9230402e+08     26887410 4.954195e+08   -2244046.3    1436496.8    1614169.5 -3.1331917e+08 
    1000      886            0  5.27611e-16 4.8576557e-09 2.9608966e+08    0.8792624 -4.4684476e+08 -4.6825099e+08     26826768 4.7212502e+08   -2305237.3     -1793299    822737.54 -2.969124e+08 
    1031      886            0  5.27611e-16 4.6008903e-09 2.7883833e+08    0.8792624 -4.1437551e+08 -4.48393e+08     26253514 4.4626474e+08   -780792.68   -2889018.7    1871715.7 -2.8071005e+08 
Loop time of 0.0143034 on 1 procs for 46 steps with 886 atoms

96.6% CPU use with 1 MPI tasks x no OpenMP threads

Minimization stats:
  Stopping criterion = linesearch alpha is zero
  Energy initial, next-to-last, final = 
     5.17263479148e-09  4.60089027063e-09  4.60089027063e-09
  Force two-norm initial, final = 0.0092203 0.00179291
  Force max component initial, final = 0.00332495 0.000804803
  Final line search alpha, max atom move = 5.66597e-07 4.55999e-10
  Iterations, force evaluations = 46 47

MPI task timing breakdown:
Section |  min time  |  avg time  |  max time  |%varavg| %total
---------------------------------------------------------------
Pair    | 0.010353   | 0.010353   | 0.010353   |   0.0 | 72.38
Neigh   | 0          | 0          | 0          |   0.0 |  0.00
Comm    | 0.0013126  | 0.0013126  | 0.0013126  |   0.0 |  9.18
Output  | 0.00038537 | 0.00038537 | 0.00038537 |   0.0 |  2.69
Modify  | 0          | 0          | 0          |   0.0 |  0.00
Other   |            | 0.002252   |            |       | 15.74

Nlocal:    886 ave 886 max 886 min
Histogram: 1 0 0 0 0 0 0 0 0 0
Nghost:    1751 ave 1751 max 1751 min
Histogram: 1 0 0 0 0 0 0 0 0 0
Neighs:    7386 ave 7386 max 7386 min
Histogram: 1 0 0 0 0 0 0 0 0 0

Total # of neighbors = 7386
Ave neighs/atom = 8.33634
Neighbor list builds = 0
Dangerous builds not checked

print "${gamxy} ${press} ${Up} $(c_packf) ${sxx} ${syy} ${szz} ${sxy} ${sxz} ${syz} $(c_aMPSpos) $(c_aMPSneg)" append 3_outXY_post.dat
0.04108 278838330.416336 4.60089027062915e-09 0.87926239637205061417 -414375506.022921 -448392999.289473 26253514.063387 446264737.184699 -780792.676263549 -2889018.66714196 1871715.7365202931687 -280710046.15285563469

write_dump	all custom 3_dumpXY.elastic_post id type x y z radius c_rad v_mps v_mpsPos v_mpsNeg modify append yes

next j
jump SELF loopXY

change_box all xy delta $(v_dtilt) remap
change_box all xy delta 1.6374991031156998374e-08 remap
  triclinic box = (0 0 0) to (1.15137e-05 5.11718e-06 8.95507e-06) with tilt (2.26589e-07 0 0)
minimize 0 0 $(v_ms) $(v_ms)
minimize 0 0 1000 $(v_ms)
minimize 0 0 1000 1000
WARNING: Using 'neigh_modify every 1 delay 0 check yes' setting during minimization (../min.cpp:168)
Per MPI rank memory allocation (min/avg/max) = 7.538 | 7.538 | 7.538 Mbytes
Step Atoms KinEng Volume E_pair Press c_packf v_sxx v_syy v_szz v_sxy v_sxz v_syz c_aMPSpos c_aMPSneg 
    1031      886            0  5.27611e-16 5.3924744e-09 3.0305099e+08    0.8792624 -4.5081224e+08 -4.8747011e+08     29129393 4.8614658e+08   -1133355.4   -2865460.3    1269998.6 -3.0432098e+08 
    1038      886            0  5.27611e-16 5.3471388e-09 2.9874074e+08    0.8792624 -4.4295521e+08 -4.8229631e+08     29029287 4.7867118e+08   -770863.66   -3187905.1    2049658.9 -3.007904e+08 
Loop time of 0.00425208 on 1 procs for 7 steps with 886 atoms

72.3% CPU use with 1 MPI tasks x no OpenMP threads

Minimization stats:
  Stopping criterion = linesearch alpha is zero
  Energy initial, next-to-last, final = 
     5.39247436271e-09  5.34713883008e-09  5.34713883008e-09
  Force two-norm initial, final = 0.00143934 0.00195931
  Force max component initial, final = 0.000183013 0.00086469
  Final line search alpha, max atom move = 4.5438e-07 3.92898e-10
  Iterations, force evaluations = 7 8

MPI task timing breakdown:
Section |  min time  |  avg time  |  max time  |%varavg| %total
---------------------------------------------------------------
Pair    | 0.0028594  | 0.0028594  | 0.0028594  |   0.0 | 67.25
Neigh   | 0          | 0          | 0          |   0.0 |  0.00
Comm    | 0.00026056 | 0.00026056 | 0.00026056 |   0.0 |  6.13
Output  | 0          | 0          | 0          |   0.0 |  0.00
Modify  | 0          | 0          | 0          |   0.0 |  0.00
Other   |            | 0.001132   |            |       | 26.62

Nlocal:    886 ave 886 max 886 min
Histogram: 1 0 0 0 0 0 0 0 0 0
Nghost:    1751 ave 1751 max 1751 min
Histogram: 1 0 0 0 0 0 0 0 0 0
Neighs:    7386 ave 7386 max 7386 min
Histogram: 1 0 0 0 0 0 0 0 0 0

Total # of neighbors = 7386
Ave neighs/atom = 8.33634
Neighbor list builds = 0
Dangerous builds not checked

print "${gamxy} ${press} ${Up} $(c_packf) ${sxx} ${syy} ${szz} ${sxy} ${sxz} ${syz} $(c_aMPSpos) $(c_aMPSneg)" append 3_outXY_post.dat
0.04428 298740744.879948 5.34713883008428e-09 0.87926239637205061417 -442955206.623276 -482296314.964144 29029286.9475749 478671176.993417 -770863.658146628 -3187905.05288287 2049658.9119968495797 -300790403.79194498062

write_dump	all custom 3_dumpXY.elastic_post id type x y z radius c_rad v_mps v_mpsPos v_mpsNeg modify append yes

next j
jump SELF loopXY

change_box all xy delta $(v_dtilt) remap
change_box all xy delta 1.7203974952109301484e-08 remap
  triclinic box = (0 0 0) to (1.15137e-05 5.11718e-06 8.95507e-06) with tilt (2.43793e-07 0 0)
minimize 0 0 $(v_ms) $(v_ms)
minimize 0 0 1000 $(v_ms)
minimize 0 0 1000 1000
WARNING: Using 'neigh_modify every 1 delay 0 check yes' setting during minimization (../min.cpp:168)
Per MPI rank memory allocation (min/avg/max) = 7.538 | 7.538 | 7.538 Mbytes
Step Atoms KinEng Volume E_pair Press c_packf v_sxx v_syy v_szz v_sxy v_sxz v_syz c_aMPSpos c_aMPSneg 
    1038      886            0  5.27611e-16 6.2377472e-09 3.2399409e+08    0.8792624 -4.8101557e+08 -5.2320595e+08     32239253 5.2036851e+08   -1043569.9   -3184073.8    1334251.2 -3.2532834e+08 
    1078      886            0  5.27611e-16 6.0603838e-09 3.1402136e+08    0.8792624 -4.5816287e+08 -5.0929185e+08     25390646 4.9674294e+08    1671071.5   -7034583.5    1526688.7 -3.1554805e+08 
Loop time of 0.0116069 on 1 procs for 40 steps with 886 atoms

93.6% CPU use with 1 MPI tasks x no OpenMP threads

Minimization stats:
  Stopping criterion = linesearch alpha is zero
  Energy initial, next-to-last, final = 
      6.2377472081e-09  6.06038380676e-09  6.06038380676e-09
  Force two-norm initial, final = 0.00158563 0.000996785
  Force max component initial, final = 0.000400502 0.000421171
  Final line search alpha, max atom move = 9.94987e-07 4.19059e-10
  Iterations, force evaluations = 40 42

MPI task timing breakdown:
Section |  min time  |  avg time  |  max time  |%varavg| %total
---------------------------------------------------------------
Pair    | 0.0088914  | 0.0088914  | 0.0088914  |   0.0 | 76.60
Neigh   | 0          | 0          | 0          |   0.0 |  0.00
Comm    | 0.00103    | 0.00103    | 0.00103    |   0.0 |  8.87
Output  | 0          | 0          | 0          |   0.0 |  0.00
Modify  | 0          | 0          | 0          |   0.0 |  0.00
Other   |            | 0.001685   |            |       | 14.52

Nlocal:    886 ave 886 max 886 min
Histogram: 1 0 0 0 0 0 0 0 0 0
Nghost:    1751 ave 1751 max 1751 min
Histogram: 1 0 0 0 0 0 0 0 0 0
Neighs:    7388 ave 7388 max 7388 min
Histogram: 1 0 0 0 0 0 0 0 0 0

Total # of neighbors = 7388
Ave neighs/atom = 8.3386
Neighbor list builds = 0
Dangerous builds not checked

print "${gamxy} ${press} ${Up} $(c_packf) ${sxx} ${syy} ${szz} ${sxy} ${sxz} ${syz} $(c_aMPSpos) $(c_aMPSneg)" append 3_outXY_post.dat
0.047642 314021357.741953 6.06038380675985e-09 0.87926239637205061417 -458162870.167979 -509291849.461235 25390646.4033562 496742935.466603 1671071.45828145 -7034583.46918593 1526688.6554659910034 -315548046.39741921425

write_dump	all custom 3_dumpXY.elastic_post id type x y z radius c_rad v_mps v_mpsPos v_mpsNeg modify append yes

next j
jump SELF loopXY

change_box all xy delta $(v_dtilt) remap
change_box all xy delta 1.805342761185059998e-08 remap
  triclinic box = (0 0 0) to (1.15137e-05 5.11718e-06 8.95507e-06) with tilt (2.61846e-07 0 0)
minimize 0 0 $(v_ms) $(v_ms)
minimize 0 0 1000 $(v_ms)
minimize 0 0 1000 1000
WARNING: Using 'neigh_modify every 1 delay 0 check yes' setting during minimization (../min.cpp:168)
Per MPI rank memory allocation (min/avg/max) = 7.538 | 7.538 | 7.538 Mbytes
Step Atoms KinEng Volume E_pair Press c_packf v_sxx v_syy v_szz v_sxy v_sxz v_syz c_aMPSpos c_aMPSneg 
    1078      886            0  5.27611e-16 7.0312843e-09 3.3978084e+08    0.8792624 -4.969551e+08 -5.5145511e+08     29067706 5.4102508e+08    1496835.3     -6865055    1439985.7 -3.4122082e+08 
    1086      886            0  5.27611e-16 6.9922208e-09 3.3711066e+08    0.8792624 -4.9119205e+08 -5.4691145e+08     26771527 5.3198179e+08      1636027   -6816318.9    1589173.3 -3.3869983e+08 
Loop time of 0.00280869 on 1 procs for 8 steps with 886 atoms

97.2% CPU use with 1 MPI tasks x no OpenMP threads

Minimization stats:
  Stopping criterion = linesearch alpha is zero
  Energy initial, next-to-last, final = 
     7.03128426024e-09  6.99222083344e-09  6.99222083344e-09
  Force two-norm initial, final = 0.00118168 0.00132464
  Force max component initial, final = 0.00018176 0.000506848
  Final line search alpha, max atom move = 9.86489e-07 5e-10
  Iterations, force evaluations = 8 9

MPI task timing breakdown:
Section |  min time  |  avg time  |  max time  |%varavg| %total
---------------------------------------------------------------
Pair    | 0.0019483  | 0.0019483  | 0.0019483  |   0.0 | 69.37
Neigh   | 0          | 0          | 0          |   0.0 |  0.00
Comm    | 0.00021639 | 0.00021639 | 0.00021639 |   0.0 |  7.70
Output  | 0          | 0          | 0          |   0.0 |  0.00
Modify  | 0          | 0          | 0          |   0.0 |  0.00
Other   |            | 0.000644   |            |       | 22.93

Nlocal:    886 ave 886 max 886 min
Histogram: 1 0 0 0 0 0 0 0 0 0
Nghost:    1751 ave 1751 max 1751 min
Histogram: 1 0 0 0 0 0 0 0 0 0
Neighs:    7390 ave 7390 max 7390 min
Histogram: 1 0 0 0 0 0 0 0 0 0

Total # of neighbors = 7390
Ave neighs/atom = 8.34086
Neighbor list builds = 0
Dangerous builds not checked

print "${gamxy} ${press} ${Up} $(c_packf) ${sxx} ${syy} ${szz} ${sxy} ${sxz} ${syz} $(c_aMPSpos) $(c_aMPSneg)" append 3_outXY_post.dat
0.05117 337110657.586373 6.99222083344111e-09 0.87926239637205061417 -491192045.007113 -546911454.263823 26771526.5118165 531981787.163179 1636026.9726314 -6816318.92527058 1589173.2899010092951 -338699830.87627375126

write_dump	all custom 3_dumpXY.elastic_post id type x y z radius c_rad v_mps v_mpsPos v_mpsNeg modify append yes

next j
jump SELF loopXY

change_box all xy delta $(v_dtilt) remap
change_box all xy delta 1.8923349010380801219e-08 remap
  triclinic box = (0 0 0) to (1.15137e-05 5.11718e-06 8.95507e-06) with tilt (2.8077e-07 0 0)
minimize 0 0 $(v_ms) $(v_ms)
minimize 0 0 1000 $(v_ms)
minimize 0 0 1000 1000
WARNING: Using 'neigh_modify every 1 delay 0 check yes' setting during minimization (../min.cpp:168)
Per MPI rank memory allocation (min/avg/max) = 7.538 | 7.538 | 7.538 Mbytes
Step Atoms KinEng Volume E_pair Press c_packf v_sxx v_syy v_szz v_sxy v_sxz v_syz c_aMPSpos c_aMPSneg 
    1086      886            0  5.27611e-16 8.081264e-09 3.6340633e+08    0.8792624 -5.3079685e+08 -5.9037926e+08     30957119 5.786697e+08    1472259.5     -6408208    1590296.2 -3.6499663e+08 
    1094      886            0  5.27611e-16 8.0479013e-09 3.6444466e+08    0.8792624 -5.2731358e+08 -5.9149445e+08     25474052 5.7153295e+08      1454544   -8290181.8    1394914.8 -3.6583958e+08 
Loop time of 0.00230952 on 1 procs for 8 steps with 886 atoms

99.9% CPU use with 1 MPI tasks x no OpenMP threads

Minimization stats:
  Stopping criterion = linesearch alpha is zero
  Energy initial, next-to-last, final = 
     8.08126402018e-09  8.04790127649e-09  8.04790127649e-09
  Force two-norm initial, final = 0.00189575 0.00312801
  Force max component initial, final = 0.000615078 0.00152786
  Final line search alpha, max atom move = 3.27256e-07 5e-10
  Iterations, force evaluations = 8 9

MPI task timing breakdown:
Section |  min time  |  avg time  |  max time  |%varavg| %total
---------------------------------------------------------------
Pair    | 0.0015542  | 0.0015542  | 0.0015542  |   0.0 | 67.30
Neigh   | 0          | 0          | 0          |   0.0 |  0.00
Comm    | 0.00018943 | 0.00018943 | 0.00018943 |   0.0 |  8.20
Output  | 0          | 0          | 0          |   0.0 |  0.00
Modify  | 0          | 0          | 0          |   0.0 |  0.00
Other   |            | 0.0005659  |            |       | 24.50

Nlocal:    886 ave 886 max 886 min
Histogram: 1 0 0 0 0 0 0 0 0 0
Nghost:    1751 ave 1751 max 1751 min
Histogram: 1 0 0 0 0 0 0 0 0 0
Neighs:    7389 ave 7389 max 7389 min
Histogram: 1 0 0 0 0 0 0 0 0 0

Total # of neighbors = 7389
Ave neighs/atom = 8.33973
Neighbor list builds = 0
Dangerous builds not checked

print "${gamxy} ${press} ${Up} $(c_packf) ${sxx} ${syy} ${szz} ${sxy} ${sxz} ${syz} $(c_aMPSpos) $(c_aMPSneg)" append 3_outXY_post.dat
0.054868 364444660.460152 8.04790127649082e-09 0.87926239637205061417 -527313580.974819 -591494451.921229 25474051.5155924 571532953.402087 1454544.00106779 -8290181.80670676 1394914.811910008546 -365839575.27206248045

write_dump	all custom 3_dumpXY.elastic_post id type x y z radius c_rad v_mps v_mpsPos v_mpsNeg modify append yes

next j
jump SELF loopXY

change_box all xy delta $(v_dtilt) remap
change_box all xy delta 1.9813739147700001153e-08 remap
  triclinic box = (0 0 0) to (1.15137e-05 5.11718e-06 8.95507e-06) with tilt (3.00583e-07 0 0)
minimize 0 0 $(v_ms) $(v_ms)
minimize 0 0 1000 $(v_ms)
minimize 0 0 1000 1000
WARNING: Using 'neigh_modify every 1 delay 0 check yes' setting during minimization (../min.cpp:168)
Per MPI rank memory allocation (min/avg/max) = 7.538 | 7.538 | 7.538 Mbytes
Step Atoms KinEng Volume E_pair Press c_packf v_sxx v_syy v_szz v_sxy v_sxz v_syz c_aMPSpos c_aMPSneg 
    1094      886            0  5.27611e-16 9.2726097e-09 3.9548638e+08    0.8792624 -5.7962601e+08 -6.3656455e+08     29731406 6.2413366e+08    5941706.5   -8172640.8    1427007.5 -3.9691339e+08 
    1095      886            0  5.27611e-16 9.2726097e-09 3.9548638e+08    0.8792624 -5.7962601e+08 -6.3656455e+08     29731406 6.2413366e+08    5941706.5   -8172640.8    1427007.5 -3.9691339e+08 
Loop time of 0.00153573 on 1 procs for 1 steps with 886 atoms

99.4% CPU use with 1 MPI tasks x no OpenMP threads

Minimization stats:
  Stopping criterion = linesearch alpha is zero
  Energy initial, next-to-last, final = 
     9.27260971868e-09  9.27260971868e-09  9.27260971868e-09
  Force two-norm initial, final = 0.0121931 0.0121931
  Force max component initial, final = 0.00758629 0.00758629
  Final line search alpha, max atom move = 6.59083e-08 5e-10
  Iterations, force evaluations = 1 2

MPI task timing breakdown:
Section |  min time  |  avg time  |  max time  |%varavg| %total
---------------------------------------------------------------
Pair    | 0.00078751 | 0.00078751 | 0.00078751 |   0.0 | 51.28
Neigh   | 0          | 0          | 0          |   0.0 |  0.00
Comm    | 8.8222e-05 | 8.8222e-05 | 8.8222e-05 |   0.0 |  5.74
Output  | 0          | 0          | 0          |   0.0 |  0.00
Modify  | 0          | 0          | 0          |   0.0 |  0.00
Other   |            | 0.00066    |            |       | 42.98

Nlocal:    886 ave 886 max 886 min
Histogram: 1 0 0 0 0 0 0 0 0 0
Nghost:    1751 ave 1751 max 1751 min
Histogram: 1 0 0 0 0 0 0 0 0 0
Neighs:    7388 ave 7388 max 7388 min
Histogram: 1 0 0 0 0 0 0 0 0 0

Total # of neighbors = 7388
Ave neighs/atom = 8.3386
Neighbor list builds = 0
Dangerous builds not checked

print "${gamxy} ${press} ${Up} $(c_packf) ${sxx} ${syy} ${szz} ${sxy} ${sxz} ${syz} $(c_aMPSpos) $(c_aMPSneg)" append 3_outXY_post.dat
0.05874 395486384.700398 9.27260971868012e-09 0.87926239637205061417 -579626007.272653 -636564552.692925 29731405.8643846 624133655.130893 5941706.4739909 -8172640.81134284 1427007.5159066952765 -396913392.21630477905

write_dump	all custom 3_dumpXY.elastic_post id type x y z radius c_rad v_mps v_mpsPos v_mpsNeg modify append yes

next j
jump SELF loopXY

change_box all xy delta $(v_dtilt) remap
change_box all xy delta 2.072459802380810052e-08 remap
  triclinic box = (0 0 0) to (1.15137e-05 5.11718e-06 8.95507e-06) with tilt (3.21308e-07 0 0)
minimize 0 0 $(v_ms) $(v_ms)
minimize 0 0 1000 $(v_ms)
minimize 0 0 1000 1000
WARNING: Using 'neigh_modify every 1 delay 0 check yes' setting during minimization (../min.cpp:168)
Per MPI rank memory allocation (min/avg/max) = 7.538 | 7.538 | 7.538 Mbytes
Step Atoms KinEng Volume E_pair Press c_packf v_sxx v_syy v_szz v_sxy v_sxz v_syz c_aMPSpos c_aMPSneg 
ERROR on proc 0: Divide by 0 in variable formula (../variable.cpp:2876)
Last command: minimize 0 0 $(v_ms) $(v_ms)
