  Granular Flow Simulation 

       0 atoms 
       6 atom types 
       3 nutrients

       0 1.2793e-05 xlo xhi
       0 1.2793e-05 ylo yhi
       0 1.2793e-05 zlo zhi

Atoms

 Nutrients

     1 o2 l 3.13e-5 3.13e-5 3.13e-5 3.13e-5 3.13e-5 3.13e-5 3.13e-5
     2 h2o l 1 1 1 1 1 1 1
     3 h l 0 0 0 0 0 0 0

 Type Name

     1 maske1
     2 maske2
     3 maske3
     4 maske4
     5 maske5
     6 hetr

 Diffusion Coeffs
     
     o2 2e-9
     h2o 0
     h 0 

 Ks
     
     maske1 0 0 0
     maske2 0 0 0
     maske3 0 0 0
     maske4 0 0 0
     maske5 0 0 0
     hetr 1.88e-5 0 0

 Consumption Rate

     maske1 0
     maske2 0
     maske3 0
     maske4 0
     maske5 0
     hetr 0.001524167

 Yield
    
     maske1 0
     maske2 0
     maske3 0
     maske4 0
     maske5 0
     hetr 0.0299186992

 Maintenance
 
     maske1 0
     maske2 0
     maske3 0
     maske4 0
     maske5 0
     hetr 0

 Electron Donor
    
     maske1 o2
     maske2 o2
     maske3 o2
     maske4 o2
     maske5 o2
     hetr o2

 Decay

     maske1 0
     maske2 0
     maske3 0
     maske4 0
     maske5 0
     hetr 0

 Catabolism Coeffs
         
     maske1 0 0 0
     maske2 0 0 0
     maske3 0 0 0
     maske4 0 0 0
     maske5 0 0 0
     hetr -1 0 0

 Anabolism Coeffs
          
     maske1 0 0 0
     maske2 0 0 0
     maske3 0 0 0
     maske4 0 0 0
     maske5 0 0 0
     hetr 0 0 0
 
 Decay Coeffs
           
     maske1 0 0 0
     maske2 0 0 0
     maske3 0 0 0
     maske4 0 0 0
     maske5 0 0 0
     hetr 0 0 0
 
 Nutrient Energy

    o2 inf 16.4 inf inf inf 2
    h2o inf -237.18 -157.3 inf inf 2
    h inf 0 inf inf inf 2

 Type Energy

     maske1 inf 0 inf inf inf 2
     maske2 inf 0 inf inf inf 2
     maske3 inf 0 inf inf inf 2
     maske4 inf 0 inf inf inf 2
     maske5 inf 0 inf inf inf 2
     hetr inf -67 inf inf inf 2

 Nutrient Charge
  
    o2 na 0 na na na
    h2o na 0 -1 na na
    h na 1 na na na

 Dissipation

     maske1 0
     maske2 0
     maske3 0
     maske4 0
     maske5 0
     hetr 0
