ITEM: TIMESTEP
0
ITEM: NUMBER OF ATOMS
9400
ITEM: BOX BOUNDS pp pp pp
0.0000000000000000e+00 2.0000000000000000e+01
0.0000000000000000e+00 2.0000000000000000e+01
0.0000000000000000e+00 2.0000000000000000e+01
ITEM: ATOMS c_tempID c_tempRAD c_tempPE type x y z
1 0.236873 6.77028e-06 1 9.39296 9.08996 5.15098
3 0.236873 6.77028e-06 1 9.99896 9.08996 5.15098
5 0.236873 6.77028e-06 1 10.605 9.08996 5.15098
2 0.236873 6.77028e-06 1 9.08996 9.39296 5.15098
4 0.236873 9.02704e-06 1 9.69596 9.39296 5.15098
6 0.236873 9.02704e-06 1 10.302 9.39296 5.15098
7 0.236873 6.77028e-06 1 10.908 9.39296 5.15098
8 0.236873 9.02704e-06 1 9.39296 9.69596 5.15098
10 0.236873 9.02704e-06 1 9.99896 9.69596 5.15098
12 0.236873 9.02704e-06 1 10.605 9.69596 5.15098
9 0.236873 6.77028e-06 1 9.08996 9.99896 5.15098
11 0.236873 9.02704e-06 1 9.69596 9.99896 5.15098
13 0.236873 9.02704e-06 1 10.302 9.99896 5.15098
14 0.236873 6.77028e-06 1 10.908 9.99896 5.15098
15 0.236873 9.02704e-06 1 9.39296 10.302 5.15098
17 0.236873 9.02704e-06 1 9.99896 10.302 5.15098
19 0.236873 9.02704e-06 1 10.605 10.302 5.15098
16 0.236873 6.77028e-06 1 9.08996 10.605 5.15098
18 0.236873 9.02704e-06 1 9.69596 10.605 5.15098
20 0.236873 9.02704e-06 1 10.302 10.605 5.15098
21 0.236873 6.77028e-06 1 10.908 10.605 5.15098
22 0.236873 6.77028e-06 1 9.39296 10.908 5.15098
23 0.236873 6.77028e-06 1 9.99896 10.908 5.15098
24 0.236873 6.77028e-06 1 10.605 10.908 5.15098
31 0.236873 6.77028e-06 1 9.39296 8.18096 5.45398
34 0.236873 6.77028e-06 1 9.99896 8.18096 5.45398
37 0.236873 6.77028e-06 1 10.605 8.18096 5.45398
48 0.236873 7.89866e-06 1 9.08996 8.48396 5.45398
52 0.236873 9.02704e-06 1 9.69596 8.48396 5.45398
56 0.236873 9.02704e-06 1 10.302 8.48396 5.45398
60 0.236873 7.89866e-06 1 10.908 8.48396 5.45398
45 0.236873 7.89866e-06 1 8.78696 8.78696 5.45398
49 0.236873 1.01554e-05 1 9.39296 8.78696 5.45398
53 0.236873 1.01554e-05 1 9.99896 8.78696 5.45398
57 0.236873 1.01554e-05 1 10.605 8.78696 5.45398
61 0.236873 7.89866e-06 1 11.211 8.78696 5.45398
71 0.236873 7.89866e-06 1 8.48396 9.08996 5.45398
75 0.236873 1.12838e-05 1 9.08996 9.08996 5.45398
79 0.236873 1.24122e-05 1 9.69596 9.08996 5.45398
83 0.236873 1.24122e-05 1 10.302 9.08996 5.45398
87 0.236873 1.12838e-05 1 10.908 9.08996 5.45398
91 0.236873 7.89866e-06 1 11.5139 9.08996 5.45398
68 0.236873 6.77028e-06 1 8.18096 9.39296 5.45398
72 0.236873 1.01554e-05 1 8.78696 9.39296 5.45398
76 0.236873 1.35406e-05 1 9.39296 9.39296 5.45398
80 0.236873 1.35406e-05 1 9.99896 9.39296 5.45398
84 0.236873 1.35406e-05 1 10.605 9.39296 5.45398
88 0.236873 1.01554e-05 1 11.211 9.39296 5.45398
92 0.236873 6.77028e-06 1 11.8169 9.39296 5.45398
101 0.236873 9.02704e-06 1 8.48396 9.69596 5.45398
105 0.236873 1.24122e-05 1 9.08996 9.69596 5.45398
109 0.236873 1.35406e-05 1 9.69596 9.69596 5.45398
113 0.236873 1.35406e-05 1 10.302 9.69596 5.45398
117 0.236873 1.24122e-05 1 10.908 9.69596 5.45398
121 0.236873 9.02704e-06 1 11.5139 9.69596 5.45398
98 0.236873 6.77028e-06 1 8.18096 9.99896 5.45398
102 0.236873 1.01554e-05 1 8.78696 9.99896 5.45398
106 0.236873 1.35406e-05 1 9.39296 9.99896 5.45398
110 0.236873 1.35406e-05 1 9.99896 9.99896 5.45398
114 0.236873 1.35406e-05 1 10.605 9.99896 5.45398
118 0.236873 1.01554e-05 1 11.211 9.99896 5.45398
122 0.236873 6.77028e-06 1 11.8169 9.99896 5.45398
131 0.236873 9.02704e-06 1 8.48396 10.302 5.45398
135 0.236873 1.24122e-05 1 9.08996 10.302 5.45398
139 0.236873 1.35406e-05 1 9.69596 10.302 5.45398
143 0.236873 1.35406e-05 1 10.302 10.302 5.45398
147 0.236873 1.24122e-05 1 10.908 10.302 5.45398
151 0.236873 9.02704e-06 1 11.5139 10.302 5.45398
128 0.236873 6.77028e-06 1 8.18096 10.605 5.45398
132 0.236873 1.01554e-05 1 8.78696 10.605 5.45398
136 0.236873 1.35406e-05 1 9.39296 10.605 5.45398
140 0.236873 1.35406e-05 1 9.99896 10.605 5.45398
144 0.236873 1.35406e-05 1 10.605 10.605 5.45398
148 0.236873 1.01554e-05 1 11.211 10.605 5.45398
152 0.236873 6.77028e-06 1 11.8169 10.605 5.45398
160 0.236873 7.89866e-06 1 8.48396 10.908 5.45398
164 0.236873 1.12838e-05 1 9.08996 10.908 5.45398
168 0.236873 1.24122e-05 1 9.69596 10.908 5.45398
172 0.236873 1.24122e-05 1 10.302 10.908 5.45398
176 0.236873 1.12838e-05 1 10.908 10.908 5.45398
180 0.236873 7.89866e-06 1 11.5139 10.908 5.45398
161 0.236873 7.89866e-06 1 8.78696 11.211 5.45398
165 0.236873 1.01554e-05 1 9.39296 11.211 5.45398
169 0.236873 1.01554e-05 1 9.99896 11.211 5.45398
173 0.236873 1.01554e-05 1 10.605 11.211 5.45398
177 0.236873 7.89866e-06 1 11.211 11.211 5.45398
188 0.236873 7.89866e-06 1 9.08996 11.5139 5.45398
192 0.236873 9.02704e-06 1 9.69596 11.5139 5.45398
196 0.236873 9.02704e-06 1 10.302 11.5139 5.45398
200 0.236873 7.89866e-06 1 10.908 11.5139 5.45398
189 0.236873 6.77028e-06 1 9.39296 11.8169 5.45398
193 0.236873 6.77028e-06 1 9.99896 11.8169 5.45398
197 0.236873 6.77028e-06 1 10.605 11.8169 5.45398
25 0.236873 6.77028e-06 1 9.08996 7.57497 5.75697
26 0.236873 6.77028e-06 1 9.69596 7.57497 5.75697
27 0.236873 6.77028e-06 1 10.302 7.57497 5.75697
28 0.236873 6.77028e-06 1 10.908 7.57497 5.75697
29 0.236873 7.89866e-06 1 8.78696 7.87797 5.75697
32 0.236873 1.01554e-05 1 9.39296 7.87797 5.75697
35 0.236873 1.01554e-05 1 9.99896 7.87797 5.75697
38 0.236873 1.01554e-05 1 10.605 7.87797 5.75697
40 0.236873 7.89866e-06 1 11.211 7.87797 5.75697
30 0.236873 7.89866e-06 1 8.48396 8.18096 5.75697
33 0.236873 1.12838e-05 1 9.08996 8.18096 5.75697
36 0.236873 1.24122e-05 1 9.69596 8.18096 5.75697
39 0.236873 1.24122e-05 1 10.302 8.18096 5.75697
41 0.236873 1.12838e-05 1 10.908 8.18096 5.75697
42 0.236873 7.89866e-06 1 11.5139 8.18096 5.75697
43 0.236873 7.89866e-06 1 8.18096 8.48396 5.75697
46 0.236873 1.12838e-05 1 8.78696 8.48396 5.75697
50 0.236873 1.35406e-05 1 9.39296 8.48396 5.75697
54 0.236873 1.35406e-05 1 9.99896 8.48396 5.75697
58 0.236873 1.35406e-05 1 10.605 8.48396 5.75697
62 0.236873 1.12838e-05 1 11.211 8.48396 5.75697
64 0.236873 7.89866e-06 1 11.8169 8.48396 5.75697
44 0.236873 7.89866e-06 1 7.87797 8.78696 5.75697
47 0.236873 1.12838e-05 1 8.48396 8.78696 5.75697
51 0.236873 1.35406e-05 1 9.08996 8.78696 5.75697
55 0.236873 1.35406e-05 1 9.69596 8.78696 5.75697
59 0.236873 1.35406e-05 1 10.302 8.78696 5.75697
63 0.236873 1.35406e-05 1 10.908 8.78696 5.75697
65 0.236873 1.12838e-05 1 11.5139 8.78696 5.75697
66 0.236873 7.89866e-06 1 12.1199 8.78696 5.75697
67 0.236873 6.77028e-06 1 7.57497 9.08996 5.75697
69 0.236873 1.12838e-05 1 8.18096 9.08996 5.75697
73 0.236873 1.35406e-05 1 8.78696 9.08996 5.75697
77 0.236873 1.35406e-05 1 9.39296 9.08996 5.75697
81 0.236873 1.35406e-05 1 9.99896 9.08996 5.75697
85 0.236873 1.35406e-05 1 10.605 9.08996 5.75697
89 0.236873 1.35406e-05 1 11.211 9.08996 5.75697
93 0.236873 1.12838e-05 1 11.8169 9.08996 5.75697
95 0.236873 6.77028e-06 1 12.4229 9.08996 5.75697
70 0.236873 1.01554e-05 1 7.87797 9.39296 5.75697
74 0.236873 1.35406e-05 1 8.48396 9.39296 5.75697
78 0.236873 1.35406e-05 1 9.08996 9.39296 5.75697
82 0.236873 1.35406e-05 1 9.69596 9.39296 5.75697
86 0.236873 1.35406e-05 1 10.302 9.39296 5.75697
90 0.236873 1.35406e-05 1 10.908 9.39296 5.75697
94 0.236873 1.35406e-05 1 11.5139 9.39296 5.75697
96 0.236873 1.01554e-05 1 12.1199 9.39296 5.75697
97 0.236873 6.77028e-06 1 7.57497 9.69596 5.75697
99 0.236873 1.24122e-05 1 8.18096 9.69596 5.75697
103 0.236873 1.35406e-05 1 8.78696 9.69596 5.75697
107 0.236873 1.35406e-05 1 9.39296 9.69596 5.75697
111 0.236873 1.35406e-05 1 9.99896 9.69596 5.75697
115 0.236873 1.35406e-05 1 10.605 9.69596 5.75697
119 0.236873 1.35406e-05 1 11.211 9.69596 5.75697
123 0.236873 1.24122e-05 1 11.8169 9.69596 5.75697
125 0.236873 6.77028e-06 1 12.4229 9.69596 5.75697
100 0.236873 1.01554e-05 1 7.87797 9.99896 5.75697
104 0.236873 1.35406e-05 1 8.48396 9.99896 5.75697
108 0.236873 1.35406e-05 1 9.08996 9.99896 5.75697
112 0.236873 1.35406e-05 1 9.69596 9.99896 5.75697
116 0.236873 1.35406e-05 1 10.302 9.99896 5.75697
120 0.236873 1.35406e-05 1 10.908 9.99896 5.75697
124 0.236873 1.35406e-05 1 11.5139 9.99896 5.75697
126 0.236873 1.01554e-05 1 12.1199 9.99896 5.75697
127 0.236873 6.77028e-06 1 7.57497 10.302 5.75697
129 0.236873 1.24122e-05 1 8.18096 10.302 5.75697
133 0.236873 1.35406e-05 1 8.78696 10.302 5.75697
137 0.236873 1.35406e-05 1 9.39296 10.302 5.75697
141 0.236873 1.35406e-05 1 9.99896 10.302 5.75697
145 0.236873 1.35406e-05 1 10.605 10.302 5.75697
149 0.236873 1.35406e-05 1 11.211 10.302 5.75697
153 0.236873 1.24122e-05 1 11.8169 10.302 5.75697
155 0.236873 6.77028e-06 1 12.4229 10.302 5.75697
130 0.236873 1.01554e-05 1 7.87797 10.605 5.75697
134 0.236873 1.35406e-05 1 8.48396 10.605 5.75697
138 0.236873 1.35406e-05 1 9.08996 10.605 5.75697
142 0.236873 1.35406e-05 1 9.69596 10.605 5.75697
146 0.236873 1.35406e-05 1 10.302 10.605 5.75697
150 0.236873 1.35406e-05 1 10.908 10.605 5.75697
154 0.236873 1.35406e-05 1 11.5139 10.605 5.75697
156 0.236873 1.01554e-05 1 12.1199 10.605 5.75697
157 0.236873 6.77028e-06 1 7.57497 10.908 5.75697
158 0.236873 1.12838e-05 1 8.18096 10.908 5.75697
162 0.236873 1.35406e-05 1 8.78696 10.908 5.75697
166 0.236873 1.35406e-05 1 9.39296 10.908 5.75697
170 0.236873 1.35406e-05 1 9.99896 10.908 5.75697
174 0.236873 1.35406e-05 1 10.605 10.908 5.75697
178 0.236873 1.35406e-05 1 11.211 10.908 5.75697
181 0.236873 1.12838e-05 1 11.8169 10.908 5.75697
183 0.236873 6.77028e-06 1 12.4229 10.908 5.75697
159 0.236873 7.89866e-06 1 7.87797 11.211 5.75697
163 0.236873 1.12838e-05 1 8.48396 11.211 5.75697
167 0.236873 1.35406e-05 1 9.08996 11.211 5.75697
171 0.236873 1.35406e-05 1 9.69596 11.211 5.75697
175 0.236873 1.35406e-05 1 10.302 11.211 5.75697
179 0.236873 1.35406e-05 1 10.908 11.211 5.75697
182 0.236873 1.12838e-05 1 11.5139 11.211 5.75697
184 0.236873 7.89866e-06 1 12.1199 11.211 5.75697
185 0.236873 7.89866e-06 1 8.18096 11.5139 5.75697
186 0.236873 1.12838e-05 1 8.78696 11.5139 5.75697
190 0.236873 1.35406e-05 1 9.39296 11.5139 5.75697
194 0.236873 1.35406e-05 1 9.99896 11.5139 5.75697
198 0.236873 1.35406e-05 1 10.605 11.5139 5.75697
201 0.236873 1.12838e-05 1 11.211 11.5139 5.75697
203 0.236873 7.89866e-06 1 11.8169 11.5139 5.75697
187 0.236873 7.89866e-06 1 8.48396 11.8169 5.75697
191 0.236873 1.12838e-05 1 9.08996 11.8169 5.75697
195 0.236873 1.24122e-05 1 9.69596 11.8169 5.75697
199 0.236873 1.24122e-05 1 10.302 11.8169 5.75697
202 0.236873 1.12838e-05 1 10.908 11.8169 5.75697
204 0.236873 7.89866e-06 1 11.5139 11.8169 5.75697
205 0.236873 7.89866e-06 1 8.78696 12.1199 5.75697
206 0.236873 1.01554e-05 1 9.39296 12.1199 5.75697
208 0.236873 1.01554e-05 1 9.99896 12.1199 5.75697
210 0.236873 1.01554e-05 1 10.605 12.1199 5.75697
212 0.236873 7.89866e-06 1 11.211 12.1199 5.75697
207 0.236873 6.77028e-06 1 9.08996 12.4229 5.75697
209 0.236873 6.77028e-06 1 9.69596 12.4229 5.75697
211 0.236873 6.77028e-06 1 10.302 12.4229 5.75697
213 0.236873 6.77028e-06 1 10.908 12.4229 5.75697
217 0.236873 6.77028e-06 1 9.99896 6.96897 6.05997
230 0.236873 7.89866e-06 1 9.08996 7.27197 6.05997
234 0.236873 9.02704e-06 1 9.69596 7.27197 6.05997
238 0.236873 9.02704e-06 1 10.302 7.27197 6.05997
242 0.236873 7.89866e-06 1 10.908 7.27197 6.05997
224 0.236873 6.77028e-06 1 8.18096 7.57497 6.05997
227 0.236873 1.01554e-05 1 8.78696 7.57497 6.05997
231 0.236873 1.24122e-05 1 9.39296 7.57497 6.05997
235 0.236873 1.24122e-05 1 9.99896 7.57497 6.05997
239 0.236873 1.24122e-05 1 10.605 7.57497 6.05997
243 0.236873 1.01554e-05 1 11.211 7.57497 6.05997
246 0.236873 6.77028e-06 1 11.8169 7.57497 6.05997
253 0.236873 7.89866e-06 1 7.87797 7.87797 6.05997
257 0.236873 1.12838e-05 1 8.48396 7.87797 6.05997
261 0.236873 1.35406e-05 1 9.08996 7.87797 6.05997
265 0.236873 1.35406e-05 1 9.69596 7.87797 6.05997
269 0.236873 1.35406e-05 1 10.302 7.87797 6.05997
273 0.236873 1.35406e-05 1 10.908 7.87797 6.05997
277 0.236873 1.12838e-05 1 11.5139 7.87797 6.05997
281 0.236873 7.89866e-06 1 12.1199 7.87797 6.05997
250 0.236873 6.77028e-06 1 7.57497 8.18096 6.05997
254 0.236873 1.12838e-05 1 8.18096 8.18096 6.05997
258 0.236873 1.35406e-05 1 8.78696 8.18096 6.05997
262 0.236873 1.35406e-05 1 9.39296 8.18096 6.05997
266 0.236873 1.35406e-05 1 9.99896 8.18096 6.05997
270 0.236873 1.35406e-05 1 10.605 8.18096 6.05997
274 0.236873 1.35406e-05 1 11.211 8.18096 6.05997
278 0.236873 1.12838e-05 1 11.8169 8.18096 6.05997
282 0.236873 6.77028e-06 1 12.4229 8.18096 6.05997
290 0.236873 1.12838e-05 1 7.87797 8.48396 6.05997
294 0.236873 1.35406e-05 1 8.48396 8.48396 6.05997
298 0.236873 1.35406e-05 1 9.08996 8.48396 6.05997
302 0.236873 1.35406e-05 1 9.69596 8.48396 6.05997
306 0.236873 1.35406e-05 1 10.302 8.48396 6.05997
310 0.236873 1.35406e-05 1 10.908 8.48396 6.05997
314 0.236873 1.35406e-05 1 11.5139 8.48396 6.05997
318 0.236873 1.12838e-05 1 12.1199 8.48396 6.05997
287 0.236873 1.01554e-05 1 7.57497 8.78696 6.05997
291 0.236873 1.35406e-05 1 8.18096 8.78696 6.05997
295 0.236873 1.35406e-05 1 8.78696 8.78696 6.05997
299 0.236873 1.35406e-05 1 9.39296 8.78696 6.05997
303 0.236873 1.35406e-05 1 9.99896 8.78696 6.05997
307 0.236873 1.35406e-05 1 10.605 8.78696 6.05997
311 0.236873 1.35406e-05 1 11.211 8.78696 6.05997
315 0.236873 1.35406e-05 1 11.8169 8.78696 6.05997
319 0.236873 1.01554e-05 1 12.4229 8.78696 6.05997
326 0.236873 7.89866e-06 1 7.27197 9.08996 6.05997
330 0.236873 1.35406e-05 1 7.87797 9.08996 6.05997
334 0.236873 1.35406e-05 1 8.48396 9.08996 6.05997
338 0.236873 1.35406e-05 1 9.08996 9.08996 6.05997
342 0.236873 1.35406e-05 1 9.69596 9.08996 6.05997
346 0.236873 1.35406e-05 1 10.302 9.08996 6.05997
350 0.236873 1.35406e-05 1 10.908 9.08996 6.05997
354 0.236873 1.35406e-05 1 11.5139 9.08996 6.05997
358 0.236873 1.35406e-05 1 12.1199 9.08996 6.05997
362 0.236873 7.89866e-06 1 12.7259 9.08996 6.05997
327 0.236873 1.24122e-05 1 7.57497 9.39296 6.05997
331 0.236873 1.35406e-05 1 8.18096 9.39296 6.05997
335 0.236873 1.35406e-05 1 8.78696 9.39296 6.05997
339 0.236873 1.35406e-05 1 9.39296 9.39296 6.05997
343 0.236873 1.35406e-05 1 9.99896 9.39296 6.05997
347 0.236873 1.35406e-05 1 10.605 9.39296 6.05997
351 0.236873 1.35406e-05 1 11.211 9.39296 6.05997
355 0.236873 1.35406e-05 1 11.8169 9.39296 6.05997
359 0.236873 1.24122e-05 1 12.4229 9.39296 6.05997
369 0.236873 9.02704e-06 1 7.27197 9.69596 6.05997
373 0.236873 1.35406e-05 1 7.87797 9.69596 6.05997
377 0.236873 1.35406e-05 1 8.48396 9.69596 6.05997
381 0.236873 1.35406e-05 1 9.08996 9.69596 6.05997
385 0.236873 1.35406e-05 1 9.69596 9.69596 6.05997
389 0.236873 1.35406e-05 1 10.302 9.69596 6.05997
393 0.236873 1.35406e-05 1 10.908 9.69596 6.05997
397 0.236873 1.35406e-05 1 11.5139 9.69596 6.05997
401 0.236873 1.35406e-05 1 12.1199 9.69596 6.05997
405 0.236873 9.02704e-06 1 12.7259 9.69596 6.05997
366 0.236873 6.77028e-06 1 6.96897 9.99896 6.05997
370 0.236873 1.24122e-05 1 7.57497 9.99896 6.05997
374 0.236873 1.35406e-05 1 8.18096 9.99896 6.05997
378 0.236873 1.35406e-05 1 8.78696 9.99896 6.05997
382 0.236873 1.35406e-05 1 9.39296 9.99896 6.05997
386 0.236873 1.35406e-05 1 9.99896 9.99896 6.05997
390 0.236873 1.35406e-05 1 10.605 9.99896 6.05997
394 0.236873 1.35406e-05 1 11.211 9.99896 6.05997
398 0.236873 1.35406e-05 1 11.8169 9.99896 6.05997
402 0.236873 1.24122e-05 1 12.4229 9.99896 6.05997
406 0.236873 6.77028e-06 1 13.0289 9.99896 6.05997
412 0.236873 9.02704e-06 1 7.27197 10.302 6.05997
416 0.236873 1.35406e-05 1 7.87797 10.302 6.05997
420 0.236873 1.35406e-05 1 8.48396 10.302 6.05997
424 0.236873 1.35406e-05 1 9.08996 10.302 6.05997
428 0.236873 1.35406e-05 1 9.69596 10.302 6.05997
432 0.236873 1.35406e-05 1 10.302 10.302 6.05997
436 0.236873 1.35406e-05 1 10.908 10.302 6.05997
440 0.236873 1.35406e-05 1 11.5139 10.302 6.05997
444 0.236873 1.35406e-05 1 12.1199 10.302 6.05997
448 0.236873 9.02704e-06 1 12.7259 10.302 6.05997
413 0.236873 1.24122e-05 1 7.57497 10.605 6.05997
417 0.236873 1.35406e-05 1 8.18096 10.605 6.05997
421 0.236873 1.35406e-05 1 8.78696 10.605 6.05997
425 0.236873 1.35406e-05 1 9.39296 10.605 6.05997
429 0.236873 1.35406e-05 1 9.99896 10.605 6.05997
433 0.236873 1.35406e-05 1 10.605 10.605 6.05997
437 0.236873 1.35406e-05 1 11.211 10.605 6.05997
441 0.236873 1.35406e-05 1 11.8169 10.605 6.05997
445 0.236873 1.24122e-05 1 12.4229 10.605 6.05997
453 0.236873 7.89866e-06 1 7.27197 10.908 6.05997
457 0.236873 1.35406e-05 1 7.87797 10.908 6.05997
461 0.236873 1.35406e-05 1 8.48396 10.908 6.05997
465 0.236873 1.35406e-05 1 9.08996 10.908 6.05997
469 0.236873 1.35406e-05 1 9.69596 10.908 6.05997
473 0.236873 1.35406e-05 1 10.302 10.908 6.05997
477 0.236873 1.35406e-05 1 10.908 10.908 6.05997
481 0.236873 1.35406e-05 1 11.5139 10.908 6.05997
485 0.236873 1.35406e-05 1 12.1199 10.908 6.05997
489 0.236873 7.89866e-06 1 12.7259 10.908 6.05997
454 0.236873 1.01554e-05 1 7.57497 11.211 6.05997
458 0.236873 1.35406e-05 1 8.18096 11.211 6.05997
462 0.236873 1.35406e-05 1 8.78696 11.211 6.05997
466 0.236873 1.35406e-05 1 9.39296 11.211 6.05997
470 0.236873 1.35406e-05 1 9.99896 11.211 6.05997
474 0.236873 1.35406e-05 1 10.605 11.211 6.05997
478 0.236873 1.35406e-05 1 11.211 11.211 6.05997
482 0.236873 1.35406e-05 1 11.8169 11.211 6.05997
486 0.236873 1.01554e-05 1 12.4229 11.211 6.05997
496 0.236873 1.12838e-05 1 7.87797 11.5139 6.05997
500 0.236873 1.35406e-05 1 8.48396 11.5139 6.05997
504 0.236873 1.35406e-05 1 9.08996 11.5139 6.05997
508 0.236873 1.35406e-05 1 9.69596 11.5139 6.05997
512 0.236873 1.35406e-05 1 10.302 11.5139 6.05997
516 0.236873 1.35406e-05 1 10.908 11.5139 6.05997
520 0.236873 1.35406e-05 1 11.5139 11.5139 6.05997
524 0.236873 1.12838e-05 1 12.1199 11.5139 6.05997
493 0.236873 6.77028e-06 1 7.57497 11.8169 6.05997
497 0.236873 1.12838e-05 1 8.18096 11.8169 6.05997
501 0.236873 1.35406e-05 1 8.78696 11.8169 6.05997
505 0.236873 1.35406e-05 1 9.39296 11.8169 6.05997
509 0.236873 1.35406e-05 1 9.99896 11.8169 6.05997
513 0.236873 1.35406e-05 1 10.605 11.8169 6.05997
517 0.236873 1.35406e-05 1 11.211 11.8169 6.05997
521 0.236873 1.12838e-05 1 11.8169 11.8169 6.05997
525 0.236873 6.77028e-06 1 12.4229 11.8169 6.05997
531 0.236873 7.89866e-06 1 7.87797 12.1199 6.05997
535 0.236873 1.12838e-05 1 8.48396 12.1199 6.05997
539 0.236873 1.35406e-05 1 9.08996 12.1199 6.05997
543 0.236873 1.35406e-05 1 9.69596 12.1199 6.05997
547 0.236873 1.35406e-05 1 10.302 12.1199 6.05997
551 0.236873 1.35406e-05 1 10.908 12.1199 6.05997
555 0.236873 1.12838e-05 1 11.5139 12.1199 6.05997
559 0.236873 7.89866e-06 1 12.1199 12.1199 6.05997
532 0.236873 6.77028e-06 1 8.18096 12.4229 6.05997
536 0.236873 1.01554e-05 1 8.78696 12.4229 6.05997
540 0.236873 1.24122e-05 1 9.39296 12.4229 6.05997
544 0.236873 1.24122e-05 1 9.99896 12.4229 6.05997
548 0.236873 1.24122e-05 1 10.605 12.4229 6.05997
552 0.236873 1.01554e-05 1 11.211 12.4229 6.05997
556 0.236873 6.77028e-06 1 11.8169 12.4229 6.05997
565 0.236873 7.89866e-06 1 9.08996 12.7259 6.05997
568 0.236873 9.02704e-06 1 9.69596 12.7259 6.05997
572 0.236873 9.02704e-06 1 10.302 12.7259 6.05997
575 0.236873 7.89866e-06 1 10.908 12.7259 6.05997
569 0.236873 6.77028e-06 1 9.99896 13.0289 6.05997
215 0.236873 6.77028e-06 1 9.39296 6.66597 6.36297
218 0.236873 7.89866e-06 1 9.99896 6.66597 6.36297
220 0.236873 6.77028e-06 1 10.605 6.66597 6.36297
214 0.236873 6.77028e-06 1 8.48396 6.96897 6.36297
216 0.236873 9.02704e-06 1 9.08996 6.96897 6.36297
219 0.236873 1.12838e-05 1 9.69596 6.96897 6.36297
221 0.236873 1.12838e-05 1 10.302 6.96897 6.36297
222 0.236873 9.02704e-06 1 10.908 6.96897 6.36297
223 0.236873 6.77028e-06 1 11.5139 6.96897 6.36297
225 0.236873 9.02704e-06 1 8.18096 7.27197 6.36297
228 0.236873 1.12838e-05 1 8.78696 7.27197 6.36297
232 0.236873 1.24122e-05 1 9.39296 7.27197 6.36297
236 0.236873 1.35406e-05 1 9.99896 7.27197 6.36297
240 0.236873 1.24122e-05 1 10.605 7.27197 6.36297
244 0.236873 1.12838e-05 1 11.211 7.27197 6.36297
247 0.236873 9.02704e-06 1 11.8169 7.27197 6.36297
226 0.236873 1.01554e-05 1 7.87797 7.57497 6.36297
229 0.236873 1.24122e-05 1 8.48396 7.57497 6.36297
233 0.236873 1.35406e-05 1 9.08996 7.57497 6.36297
237 0.236873 1.35406e-05 1 9.69596 7.57497 6.36297
241 0.236873 1.35406e-05 1 10.302 7.57497 6.36297
245 0.236873 1.35406e-05 1 10.908 7.57497 6.36297
248 0.236873 1.24122e-05 1 11.5139 7.57497 6.36297
249 0.236873 1.01554e-05 1 12.1199 7.57497 6.36297
251 0.236873 1.01554e-05 1 7.57497 7.87797 6.36297
255 0.236873 1.35406e-05 1 8.18096 7.87797 6.36297
259 0.236873 1.35406e-05 1 8.78696 7.87797 6.36297
263 0.236873 1.35406e-05 1 9.39296 7.87797 6.36297
267 0.236873 1.35406e-05 1 9.99896 7.87797 6.36297
271 0.236873 1.35406e-05 1 10.605 7.87797 6.36297
275 0.236873 1.35406e-05 1 11.211 7.87797 6.36297
279 0.236873 1.35406e-05 1 11.8169 7.87797 6.36297
283 0.236873 1.01554e-05 1 12.4229 7.87797 6.36297
252 0.236873 9.02704e-06 1 7.27197 8.18096 6.36297
256 0.236873 1.35406e-05 1 7.87797 8.18096 6.36297
260 0.236873 1.35406e-05 1 8.48396 8.18096 6.36297
264 0.236873 1.35406e-05 1 9.08996 8.18096 6.36297
268 0.236873 1.35406e-05 1 9.69596 8.18096 6.36297
272 0.236873 1.35406e-05 1 10.302 8.18096 6.36297
276 0.236873 1.35406e-05 1 10.908 8.18096 6.36297
280 0.236873 1.35406e-05 1 11.5139 8.18096 6.36297
284 0.236873 1.35406e-05 1 12.1199 8.18096 6.36297
285 0.236873 9.02704e-06 1 12.7259 8.18096 6.36297
286 0.236873 6.77028e-06 1 6.96897 8.48396 6.36297
288 0.236873 1.24122e-05 1 7.57497 8.48396 6.36297
292 0.236873 1.35406e-05 1 8.18096 8.48396 6.36297
296 0.236873 1.35406e-05 1 8.78696 8.48396 6.36297
300 0.236873 1.35406e-05 1 9.39296 8.48396 6.36297
304 0.236873 1.35406e-05 1 9.99896 8.48396 6.36297
308 0.236873 1.35406e-05 1 10.605 8.48396 6.36297
312 0.236873 1.35406e-05 1 11.211 8.48396 6.36297
316 0.236873 1.35406e-05 1 11.8169 8.48396 6.36297
320 0.236873 1.24122e-05 1 12.4229 8.48396 6.36297
322 0.236873 6.77028e-06 1 13.0289 8.48396 6.36297
289 0.236873 1.12838e-05 1 7.27197 8.78696 6.36297
293 0.236873 1.35406e-05 1 7.87797 8.78696 6.36297
297 0.236873 1.35406e-05 1 8.48396 8.78696 6.36297
301 0.236873 1.35406e-05 1 9.08996 8.78696 6.36297
305 0.236873 1.35406e-05 1 9.69596 8.78696 6.36297
309 0.236873 1.35406e-05 1 10.302 8.78696 6.36297
313 0.236873 1.35406e-05 1 10.908 8.78696 6.36297
317 0.236873 1.35406e-05 1 11.5139 8.78696 6.36297
321 0.236873 1.35406e-05 1 12.1199 8.78696 6.36297
323 0.236873 1.12838e-05 1 12.7259 8.78696 6.36297
324 0.236873 9.02704e-06 1 6.96897 9.08996 6.36297
328 0.236873 1.35406e-05 1 7.57497 9.08996 6.36297
332 0.236873 1.35406e-05 1 8.18096 9.08996 6.36297
336 0.236873 1.35406e-05 1 8.78696 9.08996 6.36297
340 0.236873 1.35406e-05 1 9.39296 9.08996 6.36297
344 0.236873 1.35406e-05 1 9.99896 9.08996 6.36297
348 0.236873 1.35406e-05 1 10.605 9.08996 6.36297
352 0.236873 1.35406e-05 1 11.211 9.08996 6.36297
356 0.236873 1.35406e-05 1 11.8169 9.08996 6.36297
360 0.236873 1.35406e-05 1 12.4229 9.08996 6.36297
363 0.236873 9.02704e-06 1 13.0289 9.08996 6.36297
325 0.236873 6.77028e-06 1 6.66597 9.39296 6.36297
329 0.236873 1.24122e-05 1 7.27197 9.39296 6.36297
333 0.236873 1.35406e-05 1 7.87797 9.39296 6.36297
337 0.236873 1.35406e-05 1 8.48396 9.39296 6.36297
341 0.236873 1.35406e-05 1 9.08996 9.39296 6.36297
345 0.236873 1.35406e-05 1 9.69596 9.39296 6.36297
349 0.236873 1.35406e-05 1 10.302 9.39296 6.36297
353 0.236873 1.35406e-05 1 10.908 9.39296 6.36297
357 0.236873 1.35406e-05 1 11.5139 9.39296 6.36297
361 0.236873 1.35406e-05 1 12.1199 9.39296 6.36297
364 0.236873 1.24122e-05 1 12.7259 9.39296 6.36297
365 0.236873 6.77028e-06 1 13.3319 9.39296 6.36297
367 0.236873 1.12838e-05 1 6.96897 9.69596 6.36297
371 0.236873 1.35406e-05 1 7.57497 9.69596 6.36297
375 0.236873 1.35406e-05 1 8.18096 9.69596 6.36297
379 0.236873 1.35406e-05 1 8.78696 9.69596 6.36297
383 0.236873 1.35406e-05 1 9.39296 9.69596 6.36297
387 0.236873 1.35406e-05 1 9.99896 9.69596 6.36297
391 0.236873 1.35406e-05 1 10.605 9.69596 6.36297
395 0.236873 1.35406e-05 1 11.211 9.69596 6.36297
399 0.236873 1.35406e-05 1 11.8169 9.69596 6.36297
403 0.236873 1.35406e-05 1 12.4229 9.69596 6.36297
407 0.236873 1.12838e-05 1 13.0289 9.69596 6.36297
368 0.236873 7.89866e-06 1 6.66597 9.99896 6.36297
372 0.236873 1.35406e-05 1 7.27197 9.99896 6.36297
376 0.236873 1.35406e-05 1 7.87797 9.99896 6.36297
380 0.236873 1.35406e-05 1 8.48396 9.99896 6.36297
384 0.236873 1.35406e-05 1 9.08996 9.99896 6.36297
388 0.236873 1.35406e-05 1 9.69596 9.99896 6.36297
392 0.236873 1.35406e-05 1 10.302 9.99896 6.36297
396 0.236873 1.35406e-05 1 10.908 9.99896 6.36297
400 0.236873 1.35406e-05 1 11.5139 9.99896 6.36297
404 0.236873 1.35406e-05 1 12.1199 9.99896 6.36297
408 0.236873 1.35406e-05 1 12.7259 9.99896 6.36297
409 0.236873 7.89866e-06 1 13.3319 9.99896 6.36297
410 0.236873 1.12838e-05 1 6.96897 10.302 6.36297
414 0.236873 1.35406e-05 1 7.57497 10.302 6.36297
418 0.236873 1.35406e-05 1 8.18096 10.302 6.36297
422 0.236873 1.35406e-05 1 8.78696 10.302 6.36297
426 0.236873 1.35406e-05 1 9.39296 10.302 6.36297
430 0.236873 1.35406e-05 1 9.99896 10.302 6.36297
434 0.236873 1.35406e-05 1 10.605 10.302 6.36297
438 0.236873 1.35406e-05 1 11.211 10.302 6.36297
442 0.236873 1.35406e-05 1 11.8169 10.302 6.36297
446 0.236873 1.35406e-05 1 12.4229 10.302 6.36297
449 0.236873 1.12838e-05 1 13.0289 10.302 6.36297
411 0.236873 6.77028e-06 1 6.66597 10.605 6.36297
415 0.236873 1.24122e-05 1 7.27197 10.605 6.36297
419 0.236873 1.35406e-05 1 7.87797 10.605 6.36297
423 0.236873 1.35406e-05 1 8.48396 10.605 6.36297
427 0.236873 1.35406e-05 1 9.08996 10.605 6.36297
431 0.236873 1.35406e-05 1 9.69596 10.605 6.36297
435 0.236873 1.35406e-05 1 10.302 10.605 6.36297
439 0.236873 1.35406e-05 1 10.908 10.605 6.36297
443 0.236873 1.35406e-05 1 11.5139 10.605 6.36297
447 0.236873 1.35406e-05 1 12.1199 10.605 6.36297
450 0.236873 1.24122e-05 1 12.7259 10.605 6.36297
451 0.236873 6.77028e-06 1 13.3319 10.605 6.36297
452 0.236873 9.02704e-06 1 6.96897 10.908 6.36297
455 0.236873 1.35406e-05 1 7.57497 10.908 6.36297
459 0.236873 1.35406e-05 1 8.18096 10.908 6.36297
463 0.236873 1.35406e-05 1 8.78696 10.908 6.36297
467 0.236873 1.35406e-05 1 9.39296 10.908 6.36297
471 0.236873 1.35406e-05 1 9.99896 10.908 6.36297
475 0.236873 1.35406e-05 1 10.605 10.908 6.36297
479 0.236873 1.35406e-05 1 11.211 10.908 6.36297
483 0.236873 1.35406e-05 1 11.8169 10.908 6.36297
487 0.236873 1.35406e-05 1 12.4229 10.908 6.36297
490 0.236873 9.02704e-06 1 13.0289 10.908 6.36297
456 0.236873 1.12838e-05 1 7.27197 11.211 6.36297
460 0.236873 1.35406e-05 1 7.87797 11.211 6.36297
464 0.236873 1.35406e-05 1 8.48396 11.211 6.36297
468 0.236873 1.35406e-05 1 9.08996 11.211 6.36297
472 0.236873 1.35406e-05 1 9.69596 11.211 6.36297
476 0.236873 1.35406e-05 1 10.302 11.211 6.36297
480 0.236873 1.35406e-05 1 10.908 11.211 6.36297
484 0.236873 1.35406e-05 1 11.5139 11.211 6.36297
488 0.236873 1.35406e-05 1 12.1199 11.211 6.36297
491 0.236873 1.12838e-05 1 12.7259 11.211 6.36297
492 0.236873 6.77028e-06 1 6.96897 11.5139 6.36297
494 0.236873 1.24122e-05 1 7.57497 11.5139 6.36297
498 0.236873 1.35406e-05 1 8.18096 11.5139 6.36297
502 0.236873 1.35406e-05 1 8.78696 11.5139 6.36297
506 0.236873 1.35406e-05 1 9.39296 11.5139 6.36297
510 0.236873 1.35406e-05 1 9.99896 11.5139 6.36297
514 0.236873 1.35406e-05 1 10.605 11.5139 6.36297
518 0.236873 1.35406e-05 1 11.211 11.5139 6.36297
522 0.236873 1.35406e-05 1 11.8169 11.5139 6.36297
526 0.236873 1.24122e-05 1 12.4229 11.5139 6.36297
528 0.236873 6.77028e-06 1 13.0289 11.5139 6.36297
495 0.236873 9.02704e-06 1 7.27197 11.8169 6.36297
499 0.236873 1.35406e-05 1 7.87797 11.8169 6.36297
503 0.236873 1.35406e-05 1 8.48396 11.8169 6.36297
507 0.236873 1.35406e-05 1 9.08996 11.8169 6.36297
511 0.236873 1.35406e-05 1 9.69596 11.8169 6.36297
515 0.236873 1.35406e-05 1 10.302 11.8169 6.36297
519 0.236873 1.35406e-05 1 10.908 11.8169 6.36297
523 0.236873 1.35406e-05 1 11.5139 11.8169 6.36297
527 0.236873 1.35406e-05 1 12.1199 11.8169 6.36297
529 0.236873 9.02704e-06 1 12.7259 11.8169 6.36297
530 0.236873 1.01554e-05 1 7.57497 12.1199 6.36297
533 0.236873 1.35406e-05 1 8.18096 12.1199 6.36297
537 0.236873 1.35406e-05 1 8.78696 12.1199 6.36297
541 0.236873 1.35406e-05 1 9.39296 12.1199 6.36297
545 0.236873 1.35406e-05 1 9.99896 12.1199 6.36297
549 0.236873 1.35406e-05 1 10.605 12.1199 6.36297
553 0.236873 1.35406e-05 1 11.211 12.1199 6.36297
557 0.236873 1.35406e-05 1 11.8169 12.1199 6.36297
560 0.236873 1.01554e-05 1 12.4229 12.1199 6.36297
534 0.236873 1.01554e-05 1 7.87797 12.4229 6.36297
538 0.236873 1.24122e-05 1 8.48396 12.4229 6.36297
542 0.236873 1.35406e-05 1 9.08996 12.4229 6.36297
546 0.236873 1.35406e-05 1 9.69596 12.4229 6.36297
550 0.236873 1.35406e-05 1 10.302 12.4229 6.36297
554 0.236873 1.35406e-05 1 10.908 12.4229 6.36297
558 0.236873 1.24122e-05 1 11.5139 12.4229 6.36297
561 0.236873 1.01554e-05 1 12.1199 12.4229 6.36297
562 0.236873 9.02704e-06 1 8.18096 12.7259 6.36297
563 0.236873 1.12838e-05 1 8.78696 12.7259 6.36297
566 0.236873 1.24122e-05 1 9.39296 12.7259 6.36297
570 0.236873 1.35406e-05 1 9.99896 12.7259 6.36297
573 0.236873 1.24122e-05 1 10.605 12.7259 6.36297
576 0.236873 1.12838e-05 1 11.211 12.7259 6.36297
578 0.236873 9.02704e-06 1 11.8169 12.7259 6.36297
564 0.236873 6.77028e-06 1 8.48396 13.0289 6.36297
567 0.236873 9.02704e-06 1 9.08996 13.0289 6.36297
571 0.236873 1.12838e-05 1 9.69596 13.0289 6.36297
574 0.236873 1.12838e-05 1 10.302 13.0289 6.36297
577 0.236873 9.02704e-06 1 10.908 13.0289 6.36297
579 0.236873 6.77028e-06 1 11.5139 13.0289 6.36297
580 0.236873 6.77028e-06 1 9.39296 13.3319 6.36297
581 0.236873 7.89866e-06 1 9.99896 13.3319 6.36297
582 0.236873 6.77028e-06 1 10.605 13.3319 6.36297
584 0.236873 6.77028e-06 1 9.39296 6.36297 6.66597
586 0.236873 7.89866e-06 1 9.99896 6.36297 6.66597
589 0.236873 6.77028e-06 1 10.605 6.36297 6.66597
596 0.236873 7.89866e-06 1 8.48396 6.66597 6.66597
600 0.236873 1.01554e-05 1 9.08996 6.66597 6.66597
604 0.236873 1.24122e-05 1 9.69596 6.66597 6.66597
608 0.236873 1.24122e-05 1 10.302 6.66597 6.66597
612 0.236873 1.01554e-05 1 10.908 6.66597 6.66597
616 0.236873 7.89866e-06 1 11.5139 6.66597 6.66597