units nano 
atom_style sphere 
atom_modify map yes # NEEDED FOR NUCLEATE FIXES!! 
boundary p p p 
region simbox block 0 20 0 20 0 20 units box 
create_box 2 simbox #make space for enough types when creating box 
Created orthogonal box = (0 0 0) to (20 20 20)
  1 by 1 by 2 MPI processor grid
variable DCH equal 0.473745541 
variable eqDCH equal $(v_DCH)*(0.74^(1./3.)) 
variable eqDCH equal 0.47374554099999999224*(0.74^(1./3.)) 
variable scale equal sqrt(2)*v_eqDCH 
lattice fcc $(v_scale) 
lattice fcc 0.60599732400958894463 
Lattice spacing in x,y,z = 0.60599732 0.60599732 0.60599732
region nuc1 sphere 10 10 10 5 units box 
create_atoms 1 region nuc1 
Created 9400 atoms
  using lattice units in orthogonal box = (0 0 0) to (20 20 20)
  create_atoms CPU = 0.004 seconds
group nuc1 region nuc1 
9400 atoms in group nuc1
set type 1 diameter $(v_DCH) 
set type 1 diameter 0.47374554099999999224 
Setting atom values ...
  9400 settings made for diameter
set type 2 diameter $(v_DCH) 
set type 2 diameter 0.47374554099999999224 
Setting atom values ...
  0 settings made for diameter
pair_style table linear 4000 
pair_coeff 1 1 ./table.potential_CH-CH.txt Spring_Ca(OH)2-Ca(OH)2 
WARNING: 1693 of 4000 force values in table Spring_Ca(OH)2-Ca(OH)2 are inconsistent with -dE/dr.
WARNING:  Should only be flagged at inflection points (src/pair_table.cpp:465)
WARNING: 3999 of 4000 distance values in table 1e-06 with relative error
WARNING:  over Spring_Ca(OH)2-Ca(OH)2 to re-computed values (src/pair_table.cpp:473)
pair_coeff 1 2 ./table.potential_CH-CH.txt Spring_Ca(OH)2-Ca(OH)2 
WARNING: 1693 of 4000 force values in table Spring_Ca(OH)2-Ca(OH)2 are inconsistent with -dE/dr.
WARNING:  Should only be flagged at inflection points (src/pair_table.cpp:465)
WARNING: 3999 of 4000 distance values in table 1e-06 with relative error
WARNING:  over Spring_Ca(OH)2-Ca(OH)2 to re-computed values (src/pair_table.cpp:473)
pair_coeff 2 2 ./table.potential_CH-CH.txt Spring_Ca(OH)2-Ca(OH)2 
WARNING: 1693 of 4000 force values in table Spring_Ca(OH)2-Ca(OH)2 are inconsistent with -dE/dr.
WARNING:  Should only be flagged at inflection points (src/pair_table.cpp:465)
WARNING: 3999 of 4000 distance values in table 1e-06 with relative error
WARNING:  over Spring_Ca(OH)2-Ca(OH)2 to re-computed values (src/pair_table.cpp:473)
pair_write 1 1 4000 r 1.00E-030 0.62 tableOUT.txt Spring_CSH-CH 
Appending to table file tableOUT.txt with DATE: 2022-11-01
Generated 0 of 1 mixed pair_coeff terms from geometric mixing rule
Neighbor list info ...
  update every 1 steps, delay 10 steps, check yes
  max neighbors/atom: 2000, page size: 100000
  master list distance cutoff = 0.61421
  ghost atom cutoff = 0.61421
  binsize = 0.307105, bins = 66 66 66
  1 neighbor lists, perpetual/occasional/extra = 1 0 0
  (1) pair table, perpetual
      attributes: half, newton on
      pair build: half/bin/atomonly/newton
      stencil: half/bin/3d
      bin: standard
variable skin equal $(v_eqDCH)/10. 
variable skin equal 0.42850481718808197673/10. 
neighbor $(v_skin) bin 
neighbor 0.042850481718808203224 bin 
neigh_modify delay 0 
variable Bvol equal vol
compute rad all property/atom radius
variable sva atom 4./3.*PI*c_rad*c_rad*c_rad
compute solidVc all reduce sum v_sva
variable solidV equal c_solidVc
variable packf equal v_solidV/vol
thermo_style custom step atoms c_solidVc v_solidV v_packf
run 0
WARNING: No fixes with time integration, atoms won't move (src/verlet.cpp:60)
Generated 0 of 1 mixed pair_coeff terms from geometric mixing rule
Per MPI rank memory allocation (min/avg/max) = 5.475 | 5.476 | 5.476 Mbytes
   Step        Atoms      c_solidVc       v_solidV       v_packf    
         0        9400   523.31343      523.31343      0.065414179  
Loop time of 1.598e-06 on 2 procs for 0 steps with 9400 atoms

156.4% CPU use with 2 MPI tasks x no OpenMP threads

MPI task timing breakdown:
Section |  min time  |  avg time  |  max time  |%varavg| %total
---------------------------------------------------------------
Pair    | 0          | 0          | 0          |   0.0 |  0.00
Neigh   | 0          | 0          | 0          |   0.0 |  0.00
Comm    | 0          | 0          | 0          |   0.0 |  0.00
Output  | 0          | 0          | 0          |   0.0 |  0.00
Modify  | 0          | 0          | 0          |   0.0 |  0.00
Other   |            | 1.598e-06  |            |       |100.00

Nlocal:           4700 ave        4916 max        4484 min
Histogram: 1 0 0 0 0 0 0 0 0 1
Nghost:            637 ave         853 max         421 min
Histogram: 1 0 0 0 0 0 0 0 0 1
Neighs:          26388 ave       28436 max       24340 min
Histogram: 1 0 0 0 0 0 0 0 0 1

Total # of neighbors = 52776
Ave neighs/atom = 5.6144681
Neighbor list builds = 0
Dangerous builds = 0
thermo_style custom step atoms c_solidVc v_solidV v_packf
variable Bvol delete
uncompute rad
variable sva delete
uncompute solidVc
variable solidV delete
variable packf delete
thermo_style custom step atoms
variable xl equal xlo 
variable xr equal xhi 
variable yl equal ylo 
variable yr equal yhi 
variable zl equal zlo 
variable zr equal zhi 
variable nx equal 1.5*ceil((xhi-xlo)/$(v_eqDCH)) 
variable nx equal 1.5*ceil((xhi-xlo)/0.42850481718808197673) 
variable ny equal 1.5*ceil((yhi-ylo)/$(v_eqDCH)) 
variable ny equal 1.5*ceil((yhi-ylo)/0.42850481718808197673) 
variable nz equal 1.5*ceil((zhi-zlo)/$(v_eqDCH)) 
variable nz equal 1.5*ceil((zhi-zlo)/0.42850481718808197673) 
variable Lx equal (xhi-xlo)/$(v_nx) 
variable Lx equal (xhi-xlo)/70.5 
variable Ly equal (yhi-ylo)/$(v_ny) 
variable Ly equal (yhi-ylo)/70.5 
variable Lz equal (zhi-zlo)/$(v_nz) 
variable Lz equal (zhi-zlo)/70.5 
variable scale equal v_Lx 
variable aa2 equal v_Ly/v_Lx 
variable aa3 equal v_Lz/v_Lx 
variable Qdmax equal v_eqDCH/200 
variable N equal atoms 
variable U equal epair 
variable P equal press 
variable tyCH atom "type == 1" 
group g_CH dynamic all var tyCH every 1 
dynamic group g_CH defined
variable NCH equal count(g_CH) 
compute PEall all pe/atom 
thermo_style custom step atoms vol epair press v_NCH 
thermo 1000 
print "STARTING KRUN" 
STARTING KRUN
timestep 0
dump D2 all custom 1 dump.all.subB id type x y z radius c_PEall
dump_modify D2 every 1 first yes
run 0
WARNING: No fixes with time integration, atoms won't move (src/verlet.cpp:60)
Generated 0 of 1 mixed pair_coeff terms from geometric mixing rule
Per MPI rank memory allocation (min/avg/max) = 7.237 | 7.238 | 7.239 Mbytes
   Step        Atoms        Volume         E_pair         Press          v_NCH     
         0        9400   8000           0.11910282    -1.1307615      9400         
Loop time of 1.828e-06 on 2 procs for 0 steps with 9400 atoms

164.1% CPU use with 2 MPI tasks x no OpenMP threads

MPI task timing breakdown:
Section |  min time  |  avg time  |  max time  |%varavg| %total
---------------------------------------------------------------
Pair    | 0          | 0          | 0          |   0.0 |  0.00
Neigh   | 0          | 0          | 0          |   0.0 |  0.00
Comm    | 0          | 0          | 0          |   0.0 |  0.00
Output  | 0          | 0          | 0          |   0.0 |  0.00
Modify  | 0          | 0          | 0          |   0.0 |  0.00
Other   |            | 1.828e-06  |            |       |100.00

Nlocal:           4700 ave        4916 max        4484 min
Histogram: 1 0 0 0 0 0 0 0 0 1
Nghost:            637 ave         853 max         421 min
Histogram: 1 0 0 0 0 0 0 0 0 1
Neighs:          26388 ave       28436 max       24340 min
Histogram: 1 0 0 0 0 0 0 0 0 1

Total # of neighbors = 52776
Ave neighs/atom = 5.6144681
Neighbor list builds = 0
Dangerous builds = 0
undump D2
group ptodel type 2
0 atoms in group ptodel
delete_atoms group ptodel compress no
Deleted 0 atoms, new total = 9400
group ptodel delete
 	region RegNuc sphere 10 10 10 4.5 side out units box
lattice  custom $(v_scale) a1 1.0 0.0 0.0 a2 0.0 $(v_aa2) 0.0 a3 0.0 0.0 $(v_aa3) basis 0.5 0.5 0.5
lattice  custom 0.28368794326241097981 a1 1.0 0.0 0.0 a2 0.0 $(v_aa2) 0.0 a3 0.0 0.0 $(v_aa3) basis 0.5 0.5 0.5
lattice  custom 0.28368794326241097981 a1 1.0 0.0 0.0 a2 0.0 1 0.0 a3 0.0 0.0 $(v_aa3) basis 0.5 0.5 0.5
lattice  custom 0.28368794326241097981 a1 1.0 0.0 0.0 a2 0.0 1 0.0 a3 0.0 0.0 1 basis 0.5 0.5 0.5
Lattice spacing in x,y,z = 0.28368794 0.28368794 0.28368794
create_atoms 2 region RegNuc
Created 326275 atoms
  using lattice units in orthogonal box = (0 0 0) to (20 20 20)
  create_atoms CPU = 0.062 seconds
set type 2 diameter 0.473746
Setting atom values ...
  326275 settings made for diameter
region RegNuc delete
group gtemp type 2
326275 atoms in group gtemp
variable tempNgroup equal count(gtemp)
run 0
WARNING: No fixes with time integration, atoms won't move (src/verlet.cpp:60)
Generated 0 of 1 mixed pair_coeff terms from geometric mixing rule
Per MPI rank memory allocation (min/avg/max) = 66.95 | 67.12 | 67.29 Mbytes
   Step        Atoms        Volume         E_pair         Press          v_NCH     
         0      335675   8000           2.1978568e+08  50374.258      9400         
Loop time of 2.2395e-06 on 2 procs for 0 steps with 335675 atoms

223.3% CPU use with 2 MPI tasks x no OpenMP threads

MPI task timing breakdown:
Section |  min time  |  avg time  |  max time  |%varavg| %total
---------------------------------------------------------------
Pair    | 0          | 0          | 0          |   0.0 |  0.00
Neigh   | 0          | 0          | 0          |   0.0 |  0.00
Comm    | 0          | 0          | 0          |   0.0 |  0.00
Output  | 0          | 0          | 0          |   0.0 |  0.00
Modify  | 0          | 0          | 0          |   0.0 |  0.00
Other   |            | 2.24e-06   |            |       |100.00

Nlocal:         167838 ave      168257 max      167418 min
Histogram: 1 0 0 0 0 0 0 0 0 1
Nghost:        32730.5 ave       35616 max       29845 min
Histogram: 1 0 0 0 0 0 0 0 0 1
Neighs:    2.15093e+06 ave 2.16272e+06 max 2.13915e+06 min
Histogram: 1 0 0 0 0 0 0 0 0 1

Total # of neighbors = 4301865
Ave neighs/atom = 12.815566
Neighbor list builds = 0
Dangerous builds = 0
group gtemp delete
variable tempNgroup delete
variable tempDV  equal v_Lx*v_Ly*v_Lz/1.207949625
run 0
WARNING: No fixes with time integration, atoms won't move (src/verlet.cpp:60)
Generated 0 of 1 mixed pair_coeff terms from geometric mixing rule
Per MPI rank memory allocation (min/avg/max) = 66.95 | 67.12 | 67.29 Mbytes
   Step        Atoms        Volume         E_pair         Press          v_NCH     
         0      335675   8000           2.1978568e+08  50374.258      9400         
Loop time of 1.39715e-05 on 2 procs for 0 steps with 335675 atoms

143.1% CPU use with 2 MPI tasks x no OpenMP threads

MPI task timing breakdown:
Section |  min time  |  avg time  |  max time  |%varavg| %total
---------------------------------------------------------------
Pair    | 0          | 0          | 0          |   0.0 |  0.00
Neigh   | 0          | 0          | 0          |   0.0 |  0.00
Comm    | 0          | 0          | 0          |   0.0 |  0.00
Output  | 0          | 0          | 0          |   0.0 |  0.00
Modify  | 0          | 0          | 0          |   0.0 |  0.00
Other   |            | 1.397e-05  |            |       |100.00

Nlocal:         167838 ave      168257 max      167418 min
Histogram: 1 0 0 0 0 0 0 0 0 1
Nghost:        32730.5 ave       35616 max       29845 min
Histogram: 1 0 0 0 0 0 0 0 0 1
Neighs:    2.15093e+06 ave 2.16272e+06 max 2.13915e+06 min
Histogram: 1 0 0 0 0 0 0 0 0 1

Total # of neighbors = 4301865
Ave neighs/atom = 12.815566
Neighbor list builds = 0
Dangerous builds = 0
