ITEM: TIMESTEP
1520160
ITEM: NUMBER OF ATOMS
25050
ITEM: BOX BOUNDS pp pp pp
0.0000000000000000e+00 7.0000000000000000e+00
0.0000000000000000e+00 7.0000000000000000e+00
0.0000000000000000e+00 1.0000000000000000e+01
ITEM: ATOMS c_tempID c_tempPE type x y z
2551 0 2 0.137255 0.137255 0.138889
2552 0 2 0.411765 0.137255 0.138889
2553 0 2 0.686275 0.137255 0.138889
2554 0 2 0.960784 0.137255 0.138889
2555 0 2 1.23529 0.137255 0.138889
2556 0 2 1.5098 0.137255 0.138889
2557 0 2 1.78431 0.137255 0.138889
2558 0 2 2.05882 0.137255 0.138889
2559 0 2 2.33333 0.137255 0.138889
2560 0 2 2.60784 0.137255 0.138889
2561 0 2 2.88235 0.137255 0.138889
2562 -4.03887 2 3.15653 0.139216 0.140126
2563 -4.03887 2 3.42497 0.146503 0.146284
2564 -4.03887 2 3.71732 0.179492 0.172663
3164 -12.1166 2 3.82756 0.0165172 0.2529
2565 -4.03887 2 3.95345 0.152236 0.138833
2567 -4.03887 2 4.63714 0.24056 0.138506
2568 -4.03887 2 4.7691 0.140184 0.165975
2570 -8.07774 2 5.3984 0.210943 0.201045
2571 -8.07774 2 5.54852 0.169776 0.197232
2572 -4.03887 2 5.93934 0.197984 0.193889
2573 0 2 6.17647 0.137255 0.138889
2574 0 2 6.45098 0.137255 0.138889
2575 0 2 6.72549 0.137255 0.138889
2576 0 2 0.137255 0.411765 0.138889
2577 0 2 0.411765 0.411765 0.138889
2578 0 2 0.686275 0.411765 0.138889
2579 0 2 0.960784 0.411765 0.138889
2580 0 2 1.23529 0.411765 0.138889
2581 0 2 1.5098 0.411765 0.138889
2582 0 2 1.78431 0.411765 0.138889
2583 0 2 2.05882 0.411765 0.138889
2584 0 2 2.33333 0.411765 0.138889
2585 0 2 2.60784 0.411765 0.138889
2586 0 2 2.88235 0.411765 0.138889
2587 0 2 3.15686 0.411765 0.138889
2588 0 2 3.43137 0.411765 0.138889
2589 0 2 3.70588 0.411765 0.138889
2590 0 2 3.98039 0.411765 0.138889
2566 -4.03887 2 4.1765 0.344816 0.13812
2591 0 2 4.2549 0.411765 0.138889
2592 0 2 4.52941 0.411765 0.138889
2593 0 2 4.80392 0.411765 0.138889
2594 -4.03887 2 5.07504 0.447934 0.167276
2595 -1.39649e-30 2 5.35294 0.411765 0.138889
2596 0 2 5.62745 0.411765 0.138889
2597 0 2 5.90196 0.411765 0.138889
2598 0 2 6.17647 0.411765 0.138889
2599 0 2 6.45098 0.411765 0.138889
2600 0 2 6.72549 0.411765 0.138889
2601 0 2 0.137255 0.686275 0.138889
2602 0 2 0.411765 0.686275 0.138889
2603 0 2 0.686275 0.686275 0.138889
2604 0 2 0.960784 0.686275 0.138889
2605 0 2 1.23529 0.686275 0.138889
2606 0 2 1.5098 0.686275 0.138889
2607 0 2 1.78431 0.686275 0.138889
2608 0 2 2.05882 0.686275 0.138889
2609 0 2 2.33333 0.686275 0.138889
2610 0 2 2.60784 0.686275 0.138889
2611 0 2 2.88235 0.686275 0.138889
2612 0 2 3.15686 0.686275 0.138889
2613 0 2 3.43137 0.686275 0.138889
2614 0 2 3.70588 0.686275 0.138889
2615 0 2 3.98039 0.686275 0.138889
2616 0 2 4.2549 0.686275 0.138889
2617 0 2 4.52941 0.686275 0.138889
2618 0 2 4.80392 0.686275 0.138889
2619 0 2 5.07843 0.686275 0.138889
2620 0 2 5.35294 0.686275 0.138889
2621 0 2 5.62745 0.686275 0.138889
2622 0 2 5.90196 0.686275 0.138889
2623 0 2 6.17647 0.686275 0.138889
2624 0 2 6.45098 0.686275 0.138889
2625 0 2 6.72549 0.686275 0.138889
2626 0 2 0.137255 0.960784 0.138889
2627 0 2 0.411765 0.960784 0.138889
2628 0 2 0.686275 0.960784 0.138889
2629 0 2 0.960784 0.960784 0.138889
2630 0 2 1.23529 0.960784 0.138889
2631 0 2 1.5098 0.960784 0.138889
2632 0 2 1.78431 0.960784 0.138889
2633 0 2 2.05882 0.960784 0.138889
2634 0 2 2.33333 0.960784 0.138889
2635 0 2 2.60784 0.960784 0.138889
2636 0 2 2.88235 0.960784 0.138889
2637 0 2 3.15686 0.960784 0.138889
2638 0 2 3.43137 0.960784 0.138889
2639 0 2 3.70588 0.960784 0.138889
2640 0 2 3.98039 0.960784 0.138889
2641 0 2 4.2549 0.960784 0.138889
2642 0 2 4.52941 0.960784 0.138889
2643 0 2 4.80392 0.960784 0.138889
2644 0 2 5.07843 0.960784 0.138889
2645 0 2 5.35294 0.960784 0.138889
2646 0 2 5.62745 0.960784 0.138889
2647 0 2 5.90196 0.960784 0.138889
2648 0 2 6.17647 0.960784 0.138889
2649 0 2 6.45098 0.960784 0.138889
2650 0 2 6.72549 0.960784 0.138889
2651 0 2 0.137255 1.23529 0.138889
2652 0 2 0.411765 1.23529 0.138889
2653 0 2 0.686275 1.23529 0.138889
2654 0 2 0.960784 1.23529 0.138889
2655 0 2 1.23529 1.23529 0.138889
2656 0 2 1.5098 1.23529 0.138889
2657 0 2 1.78431 1.23529 0.138889
2658 0 2 2.05882 1.23529 0.138889
2659 0 2 2.33333 1.23529 0.138889
2660 0 2 2.60784 1.23529 0.138889
2661 0 2 2.88235 1.23529 0.138889
2662 0 2 3.15686 1.23529 0.138889
2663 0 2 3.43137 1.23529 0.138889
2664 0 2 3.70588 1.23529 0.138889
2665 0 2 3.98039 1.23529 0.138889
2666 0 2 4.2549 1.23529 0.138889
2667 0 2 4.52941 1.23529 0.138889
2668 0 2 4.80392 1.23529 0.138889
2669 0 2 5.07843 1.23529 0.138889
2670 0 2 5.35294 1.23529 0.138889
2671 0 2 5.62745 1.23529 0.138889
2672 0 2 5.90196 1.23529 0.138889
2673 0 2 6.17647 1.23529 0.138889
2674 0 2 6.45098 1.23529 0.138889
2675 0 2 6.72549 1.23529 0.138889
2676 0 2 0.137255 1.5098 0.138889
2677 0 2 0.411765 1.5098 0.138889
2678 0 2 0.686275 1.5098 0.138889
2679 0 2 0.960784 1.5098 0.138889
2680 0 2 1.23529 1.5098 0.138889
2681 0 2 1.5098 1.5098 0.138889
2682 0 2 1.78431 1.5098 0.138889
3307 -4.03887 2 1.77301 1.44446 0.184864
2683 -4.03887 2 2.00761 1.48067 0.0913346
2685 -4.03887 2 2.62596 1.50188 0.125957
2686 0 2 2.88235 1.5098 0.138889
2687 0 2 3.15686 1.5098 0.138889
2688 0 2 3.43137 1.5098 0.138889
2689 0 2 3.70588 1.5098 0.138889
2690 0 2 3.98039 1.5098 0.138889
2691 0 2 4.2549 1.5098 0.138889
2692 0 2 4.52941 1.5098 0.138889
2693 0 2 4.80392 1.5098 0.138889
2694 0 2 5.07843 1.5098 0.138889
2695 0 2 5.35294 1.5098 0.138889
2696 0 2 5.62745 1.5098 0.138889
2697 0 2 5.90196 1.5098 0.138889
2698 0 2 6.17647 1.5098 0.138889
2699 0 2 6.45098 1.5098 0.138889
2700 0 2 6.72549 1.5098 0.138889
2701 0 2 0.137255 1.78431 0.138889
2702 0 2 0.411765 1.78431 0.138889
2703 0 2 0.686275 1.78431 0.138889
2704 0 2 0.960784 1.78431 0.138889
2705 0 2 1.23529 1.78431 0.138889
2706 0 2 1.5098 1.78431 0.138889
2707 -4.03887 2 1.74004 1.73143 0.0448157
3332 -8.07774 2 1.57401 1.68964 0.249473
2708 -12.1166 2 1.95305 1.60701 0.108424
2709 -8.07774 2 2.53695 1.69768 0.00905954
2710 -8.07774 2 2.60433 1.81216 0.112241
2711 0 2 2.88235 1.78431 0.138889
2712 0 2 3.15686 1.78431 0.138889
2713 0 2 3.43137 1.78431 0.138889
2714 0 2 3.70588 1.78431 0.138889
2715 0 2 3.98039 1.78431 0.138889
2716 0 2 4.2549 1.78431 0.138889
2717 0 2 4.52941 1.78431 0.138889
2718 0 2 4.80392 1.78431 0.138889
2719 0 2 5.07843 1.78431 0.138889
2720 0 2 5.35294 1.78431 0.138889
2721 0 2 5.62745 1.78431 0.138889
2722 0 2 5.90196 1.78431 0.138889
2723 0 2 6.17647 1.78431 0.138889
2724 0 2 6.45098 1.78431 0.138889
2725 0 2 6.72549 1.78431 0.138889
2726 0 2 0.137255 2.05882 0.138889
2727 0 2 0.411765 2.05882 0.138889
2728 0 2 0.686275 2.05882 0.138889
2729 0 2 0.960784 2.05882 0.138889
2730 0 2 1.23529 2.05882 0.138889
2731 -4.03887 2 1.47939 1.99546 0.0461006
2732 -8.07774 2 1.65546 1.90859 0.0408138
2322 -31.6142 1 2.20162 1.95481 0.0798283
2734 -16.1163 2 2.60162 2.06928 0.185172
2735 -16.1163 2 2.60162 2.06928 0.185172
3361 -8.07774 2 2.80596 1.98873 0.231051
2736 -9.18114e-21 2 2.88235 2.05882 0.138889
2737 -4.03887 2 3.13208 1.98889 0.0435339
3362 -8.07774 2 3.21047 1.83236 0.240839
2738 -8.07774 2 3.49366 2.04928 0.110646
2739 -4.03887 2 3.71374 2.0286 0.114428
2740 -4.03887 2 3.97593 2.04098 0.124561
2741 -4.03887 2 4.24811 2.06951 0.147471
2742 0 2 4.52941 2.05882 0.138889
2743 0 2 4.80392 2.05882 0.138889
2744 0 2 5.07843 2.05882 0.138889
2745 0 2 5.35294 2.05882 0.138889
2746 0 2 5.62745 2.05882 0.138889
2747 0 2 5.90196 2.05882 0.138889
2748 0 2 6.17647 2.05882 0.138889
2749 0 2 6.45098 2.05882 0.138889
2750 0 2 6.72549 2.05882 0.138889
2755 -8.07774 2 1.26356 2.30567 0.0596786
2756 -8.07774 2 1.38186 2.2097 0.014998
2166 368.93 1 1.90144 2.25519 0.0949816
2759 -2.46364 2 2.70345 2.23008 0.120014
2760 -2.46364 2 2.70345 2.23008 0.120014
2785 -2.46364 2 2.70345 2.23008 0.120014
3359 -17.3631 2 2.60613 2.08379 0.193604
3384 -15.6088 2 2.61433 2.09088 0.194183
3385 -17.3631 2 2.60613 2.08379 0.193604
3410 -2.46364 2 2.70345 2.23008 0.120014
24635 -8.07774 2 2.80394 2.2 0.0372126
2761 -16.1555 2 2.90383 2.22413 0.0927656
3386 -16.1555 2 2.90383 2.22413 0.0927656
2763 -12.1166 2 3.42066 2.2993 0.00832407
2764 -8.07774 2 3.63148 2.13094 0.0134694
2765 -8.07774 2 4.05326 2.12691 0.0342854
2766 -8.07774 2 4.28779 2.25907 0.0433264
3391 -8.07774 2 4.40192 2.15187 0.25314
2767 -4.03887 2 4.56405 2.27021 0.116041
3392 -8.07774 2 4.61366 2.27786 0.229554
2751 0 2 0.137255 2.33333 0.138889
2752 0 2 0.411765 2.33333 0.138889
2753 0 2 0.686275 2.33333 0.138889
2754 0 2 0.960784 2.33333 0.138889
2779 -8.07774 2 0.963422 2.58853 0.157911
2780 -8.07774 2 1.14048 2.4717 0.0248479
2781 -12.1166 2 1.19943 2.45785 0.00786798
2176 540.866 1 1.60059 2.56459 0.113906
1595 371.857 1 2.28912 2.36355 0.189923
2786 24.616 2 3.20215 2.44825 0.0418856
2787 24.616 2 3.20215 2.44825 0.0418856
2811 24.616 2 3.20215 2.44825 0.0418856
2812 24.616 2 3.20215 2.44825 0.0418856
3387 24.616 2 3.20215 2.44825 0.0418856
3412 24.616 2 3.20215 2.44825 0.0418856
24661 24.616 2 3.20215 2.44825 0.0418856
2335 241.34 1 3.84512 2.50136 0.0401995
2768 0 2 4.80392 2.33333 0.138889
2792 -12.1166 2 4.73333 2.47066 0.0876263
2793 -4.03887 2 4.84436 2.48725 0.113897
2769 0 2 5.07843 2.33333 0.138889
2794 -4.03887 2 5.07532 2.54803 0.19223
2770 0 2 5.35294 2.33333 0.138889
2771 0 2 5.62745 2.33333 0.138889
2772 0 2 5.90196 2.33333 0.138889
2773 0 2 6.17647 2.33333 0.138889
2774 0 2 6.45098 2.33333 0.138889
2775 0 2 6.72549 2.33333 0.138889
2776 0 2 0.137255 2.60784 0.138889
2777 0 2 0.411765 2.60784 0.138889
2778 0 2 0.686275 2.60784 0.138889
1798 925.4 1 2.00173 2.67231 0.204124
2783 575.334 2 2.2527 2.75182 0.0232816
2784 575.334 2 2.2527 2.75182 0.0232816
2808 575.334 2 2.2527 2.75182 0.0232816
2809 575.334 2 2.2527 2.75182 0.0232816
1800 413.978 1 2.83016 2.6324 0.199771
2119 53.4225 1 3.49224 2.69523 0.155588
2815 732.693 2 3.82434 2.8032 0.0310071
24689 732.693 2 3.82434 2.8032 0.0310071
2081 -68.2043 1 4.36758 2.62823 0.245632
2795 -4.03887 2 5.34903 2.61174 0.135413
2796 0 2 5.62745 2.60784 0.138889
2797 0 2 5.90196 2.60784 0.138889
2798 0 2 6.17647 2.60784 0.138889
2799 0 2 6.45098 2.60784 0.138889
2800 0 2 6.72549 2.60784 0.138889
2801 0 2 0.137255 2.88235 0.138889
2802 0 2 0.411765 2.88235 0.138889
2803 0 2 0.686275 2.88235 0.138889
2804 -4.03887 2 0.866609 2.88884 0.14316
2805 -4.03887 2 0.908003 3.00924 0.2353
2373 9.86011 1 1.29361 2.85942 0.123796
1987 678.922 1 1.69921 2.96953 0.219939
2835 933.28 2 2.47618 3.08142 0.256836
2810 913.281 2 2.63556 2.85218 0.0914634
1812 579.716 1 3.13697 2.93036 0.202329
1766 720.503 1 3.6599 3.08884 0.104099
1830 1150.31 1 4.01917 2.86985 0.180288
1569 579.356 1 4.358 3.08512 0.0329711
1858 -51.2244 1 4.70662 2.88544 0.19161
2820 -8.07774 2 5.43563 2.92579 0.156406
2844 -12.1166 2 5.32249 2.99785 0.244093
2845 -8.44387 2 5.34251 2.99834 0.206466
24720 -8.44387 2 5.34251 2.99834 0.206466
2821 0 2 5.62745 2.88235 0.138889
2822 -4.03887 2 5.90399 2.88427 0.133447
2846 -8.07774 2 5.7237 3.02567 0.117405
2847 -8.07774 2 5.9445 3.08789 0.162548
24721 -12.1166 2 5.7115 2.96991 0.01552
24722 -8.07774 2 5.81043 3.0099 0.109945
2823 -4.03887 2 6.1759 2.88294 0.137208
2824 0 2 6.45098 2.88235 0.138889
2825 0 2 6.72549 2.88235 0.138889
2826 0 2 0.137255 3.15686 0.138889
2827 0 2 0.411765 3.15686 0.138889
2828 0 2 0.686275 3.15686 0.138889
2829 -4.03887 2 0.974327 3.14476 0.138275
2830 -4.03887 2 1.21128 3.27935 0.145104
2831 -11.1665 2 1.4019 3.27003 0.213908
2415 -97.7768 1 2.11768 3.35405 0.00695344
2813 173.149 2 3.38694 3.24209 0.252643
2837 173.149 2 3.38694 3.24209 0.252643
2838 173.149 2 3.38694 3.24209 0.252643
2862 173.149 2 3.38694 3.24209 0.252643
2863 173.149 2 3.38694 3.24209 0.252643
3462 173.149 2 3.38694 3.24209 0.252643
3463 173.149 2 3.38694 3.24209 0.252643
3487 173.149 2 3.38694 3.24209 0.252643
3488 173.149 2 3.38694 3.24209 0.252643
1527 801.786 1 4.00771 3.29873 0.174997
2866 600.493 2 4.32053 3.34102 0.2115
2867 601.056 2 4.33707 3.36135 0.215725
3491 601.056 2 4.33707 3.36135 0.215725
3492 601.056 2 4.33707 3.36135 0.215725
24716 600.493 2 4.32053 3.34102 0.2115
24741 600.493 2 4.32053 3.34102 0.2115
1807 1276.52 1 4.97395 3.21788 0.127135
2869 466.137 2 5.20644 3.36249 0.0853524
24718 467.669 2 5.20682 3.34682 0.0497263
24719 467.669 2 5.20682 3.34682 0.0497263
24744 467.669 2 5.20682 3.34682 0.0497263
24745 467.669 2 5.20682 3.34682 0.0497263
2848 -4.03887 2 6.17568 3.15603 0.136548
2873 -8.07774 2 6.18409 3.29996 0.25121
2849 0 2 6.45098 3.15686 0.138889
24723 -8.07774 2 6.35985 3.16522 0.00402641
2850 0 2 6.72549 3.15686 0.138889
2851 0 2 0.137255 3.43137 0.138889
2852 0 2 0.411765 3.43137 0.138889
2853 0 2 0.686275 3.43137 0.138889
2854 0 2 0.960784 3.43137 0.138889
2855 0 2 1.23529 3.43137 0.138889
2856 -4.03887 2 1.45079 3.44485 0.104345
1650 348.279 1 3.62893 3.51313 0.205387
1513 950.068 1 4.61348 3.42722 0.0228117
2174 1002.46 1 5.4849 3.38063 0.140787
2871 70.5109 2 5.77106 3.56961 0.252452
2897 70.5099 2 5.77136 3.56927 0.25209
24771 70.5099 2 5.77136 3.56927 0.25209
2898 -12.1166 2 6.47777 3.51943 0.215967
2899 -12.1166 2 6.47777 3.51943 0.215967
2874 -4.03887 2 6.49079 3.41412 0.17543
2875 0 2 6.72549 3.43137 0.138889
2876 0 2 0.137255 3.70588 0.138889
2877 0 2 0.411765 3.70588 0.138889
2878 0 2 0.686275 3.70588 0.138889
2879 0 2 0.960784 3.70588 0.138889
2880 0 2 1.23529 3.70588 0.138889
2881 0 2 1.5098 3.70588 0.138889
2882 -4.03887 2 1.78128 3.74149 0.120479
2883 -4.03887 2 2.05138 3.75039 0.155579
3509 -12.1166 2 2.21111 3.70069 0.240789
2884 -12.1166 2 2.37533 3.69091 0.0678807
1778 1005.53 1 3.25043 3.70725 0.246271
1341 1569.91 1 4.2666 3.63999 0.165745
980 1842.85 1 4.6076 3.85717 0.0238929
2892 928.612 2 4.46533 3.78895 0.240497
2893 935.732 2 4.79412 3.80431 0.172908
2918 925.844 2 4.82267 3.8527 0.185053
1024 1067.69 1 4.96571 3.64434 0.123037
1012 697.929 1 5.31896 3.85936 0.227108
2925 -8.07774 2 6.73742 3.69608 0.200285
2900 -8.07774 2 6.75558 3.68956 0.149306
2901 -8.07774 2 0.163446 3.98337 0.114842
2926 -8.07774 2 0.169268 4.02424 0.191814
2902 0 2 0.411765 3.98039 0.138889
2903 0 2 0.686275 3.98039 0.138889
2904 0 2 0.960784 3.98039 0.138889
2905 0 2 1.23529 3.98039 0.138889
2906 0 2 1.5098 3.98039 0.138889
2907 0 2 1.78431 3.98039 0.138889
2908 0 2 2.05882 3.98039 0.138889
2909 0 2 2.33333 3.98039 0.138889
3535 -8.07774 2 2.50578 3.99402 0.239308
2861 -4.18729 2 2.80651 3.97082 0.0795222
2886 -4.18729 2 2.80651 3.97082 0.0795222
2887 -4.18729 2 2.80651 3.97082 0.0795222
2910 -4.03887 2 2.59956 4.00381 0.127913
2911 -4.18729 2 2.80651 3.97082 0.0795222
2912 -4.18729 2 2.80651 3.97082 0.0795222
3511 -4.18729 2 2.80651 3.97082 0.0795222
3512 -4.18729 2 2.80651 3.97082 0.0795222
3536 -4.18729 2 2.80651 3.97082 0.0795222
3537 -4.18729 2 2.80651 3.97082 0.0795222
1565 1103.23 1 3.52968 4.11014 0.135667
2891 890.087 2 4.07546 3.90627 0.0415857
2915 886.969 2 4.06405 3.93431 0.0552837
2916 890.087 2 4.07546 3.90627 0.0415857
1075 3294.63 1 4.25833 4.06834 0.161306
2917 927.282 2 4.4582 3.92189 0.240036
896 2032.59 1 4.96024 4.07478 0.125585
2919 934.853 2 5.13483 3.91171 0.0789547
2920 903.451 2 5.48798 4.07798 0.0899947
2921 903.451 2 5.48798 4.07798 0.0899947
2945 914.735 2 5.46395 4.13649 0.0582465
2946 919.004 2 5.51496 4.14027 0.125894
1213 655.099 1 6.01388 4.07992 0.0669642
1741 147.353 1 6.4008 3.89552 0.0256919
1739 56.5285 1 6.75656 4.11727 0.124081
2927 -4.03887 2 0.487586 4.20324 0.146342
2928 0 2 0.686275 4.2549 0.138889
2929 0 2 0.960784 4.2549 0.138889
2930 0 2 1.23529 4.2549 0.138889
2931 0 2 1.5098 4.2549 0.138889
2932 0 2 1.78431 4.2549 0.138889
2933 0 2 2.05882 4.2549 0.138889
2934 0 2 2.33333 4.2549 0.138889
2960 -4.03887 2 2.59016 4.39388 0.21462
2935 0 2 2.60784 4.2549 0.138889
2936 -12.1166 2 2.74858 4.32213 0.118703
2937 -10.3113 2 2.78612 4.40114 0.171553
2961 -10.3113 2 2.78612 4.40114 0.171553
2962 -10.3113 2 2.78612 4.40114 0.171553
3586 -13.7662 2 2.76521 4.40739 0.182506
2940 875.978 2 4.05223 4.18714 0.0483755
2941 874.008 2 4.06214 4.22904 0.0288393
24815 874.008 2 4.06214 4.22904 0.0288393
775 1993.93 1 4.59686 4.28728 0.0228347
2942 926.413 2 4.45823 4.21613 0.240745
875 1914.34 1 5.32086 4.28762 0.228688
2947 909.329 2 5.84693 4.29205 0.198736
1394 304.821 1 6.36992 4.29738 0.164563
2949 858.701 2 6.52527 4.29805 0.000983051
2341 -68.6011 1 0.134675 4.4437 0.111652
2952 -4.03887 2 0.542198 4.56976 0.15171
2953 0 2 0.686275 4.52941 0.138889
2954 0 2 0.960784 4.52941 0.138889
2955 0 2 1.23529 4.52941 0.138889
2956 0 2 1.5098 4.52941 0.138889
2957 0 2 1.78431 4.52941 0.138889
2958 0 2 2.05882 4.52941 0.138889
2959 -4.03887 2 2.31792 4.51749 0.145548
2986 70.649 2 2.95317 4.59482 0.190779
2987 70.649 2 2.95317 4.59482 0.190779
1674 533.091 1 3.32495 4.46897 0.258022
2938 473.098 2 3.668 4.45052 0.227073
2939 473.098 2 3.668 4.45052 0.227073
2963 473.098 2 3.668 4.45052 0.227073
2964 473.098 2 3.668 4.45052 0.227073
2965 473.098 2 3.668 4.45052 0.227073
3564 473.098 2 3.668 4.45052 0.227073
833 1073.09 1 4.24635 4.49881 0.15702
836 1059.98 1 4.95964 4.49975 0.126846
2969 902.637 2 5.1588 4.64349 0.0237308
2970 909.06 2 5.49553 4.50326 0.096794
2971 923.667 2 5.57017 4.50338 0.0905286
1005 1214.62 1 6.01504 4.50853 0.0637539
2976 -8.07774 2 0.35285 4.81229 0.101064
2977 -4.14211e-36 2 0.411765 4.80392 0.138889
2978 0 2 0.686275 4.80392 0.138889
2979 0 2 0.960784 4.80392 0.138889
2980 0 2 1.23529 4.80392 0.138889
2981 0 2 1.5098 4.80392 0.138889
2982 0 2 1.78431 4.80392 0.138889
2983 0 2 2.05882 4.80392 0.138889
2984 -4.03887 2 2.24793 4.81467 0.175789
2432 49.9175 1 2.63864 4.7655 0.0069723
860 1588.93 1 3.65292 4.73506 0.186653
856 1089.4 1 4.0521 4.88232 0.13623
777 1996.94 1 4.59226 4.71439 0.0197695
2992 682.747 2 4.6688 4.88968 0.210555
2993 682.747 2 4.6688 4.88968 0.210555
3617 682.747 2 4.6688 4.88968 0.210555
813 1795.53 1 4.96088 4.91969 0.126036
817 1934.77 1 5.32472 4.71627 0.228986
2996 911.471 2 5.62157 4.77817 0.254758
2997 913.997 2 5.89285 4.8359 0.00307769
1175 1307.17 1 6.24859 4.85954 0.0194631
2973 176.25 2 6.53455 4.69692 0.123592
2974 176.25 2 6.53455 4.69692 0.123592
2975 176.25 2 6.53455 4.69692 0.123592
2998 176.25 2 6.53455 4.69692 0.123592
2999 176.25 2 6.53455 4.69692 0.123592
3000 176.25 2 6.53455 4.69692 0.123592
3024 176.25 2 6.53455 4.69692 0.123592
3624 176.25 2 6.53455 4.69692 0.123592
24849 176.25 2 6.53455 4.69692 0.123592
24874 176.25 2 6.53455 4.69692 0.123592
1944 -81.2334 1 6.93059 4.8153 0.173573
3001 -12.1166 2 0.188412 5.1574 0.181606
3025 -12.0675 2 0.173169 5.17988 0.171885
3002 0 2 0.411765 5.07843 0.138889
3003 0 2 0.686275 5.07843 0.138889
3004 0 2 0.960784 5.07843 0.138889
3005 0 2 1.23529 5.07843 0.138889
3006 0 2 1.5098 5.07843 0.138889
3007 0 2 1.78431 5.07843 0.138889
3008 0 2 2.05882 5.07843 0.138889
3009 -7.77704e-43 2 2.33333 5.07843 0.138889
3010 -9.50823 2 2.53808 5.1336 0.165434
3011 -12.1166 2 2.55101 5.1213 0.229009
2114 1474.74 1 2.95803 5.0068 0.159743
3013 612.511 2 3.5904 5.05094 0.0961257
2989 658.9 2 3.79311 5.01565 0.0547183
3014 620.193 2 3.63263 5.0262 0.0878615
24889 622.481 2 3.64276 5.03322 0.0892947
850 1662.56 1 4.39908 5.09653 0.00496525
2995 922.033 2 5.31781 4.95488 0.120078
3020 906.55 2 5.25397 4.99108 0.147269
1034 1296.15 1 5.55825 5.0708 0.173519
3022 928.904 2 5.99665 5.06748 0.153209
3023 943.049 2 6.17002 5.06524 0.14937
1470 1357.72 1 6.60936 5.09331 0.0965382
3026 -12.3465 2 0.188544 5.23392 0.153274
24901 -8.07774 2 0.253294 5.20218 0.109153
3027 -2.21598e-40 2 0.411765 5.35294 0.138889
3028 0 2 0.686275 5.35294 0.138889
3029 0 2 0.960784 5.35294 0.138889
3030 0 2 1.23529 5.35294 0.138889
3031 0 2 1.5098 5.35294 0.138889
3032 0 2 1.78431 5.35294 0.138889
3033 0 2 2.05882 5.35294 0.138889
3034 0 2 2.33333 5.35294 0.138889
3035 -4.03887 2 2.4297 5.31072 0.17662
2090 103.811 1 2.83802 5.4075 0.0901368
3038 345.289 2 3.54458 5.40397 0.181683
3039 345.289 2 3.54458 5.40397 0.181683
3063 345.289 2 3.54458 5.40397 0.181683
3663 345.289 2 3.54458 5.40397 0.181683
3664 345.289 2 3.54458 5.40397 0.181683
3015 470.319 2 4.02424 5.22992 0.0792185
3016 470.319 2 4.02424 5.22992 0.0792185
3040 470.319 2 4.02424 5.22992 0.0792185
24890 470.319 2 4.02424 5.22992 0.0792185
24915 470.319 2 4.02424 5.22992 0.0792185
3019 723.689 2 4.93774 5.20194 0.166416
3044 723.689 2 4.93774 5.20194 0.166416
776 1809.32 1 5.19742 5.27623 0.0736954
3021 929.062 2 5.76784 5.22337 0.0702387
3046 918.753 2 5.74945 5.28285 0.036639
3047 943.634 2 5.82365 5.36105 0.0753484
1155 2016.64 1 6.24074 5.2856 0.0304247
1822 116.823 1 6.84078 5.43532 0.0413431
3051 -8.07774 2 0.194866 5.65545 0.140021
3052 0 2 0.411765 5.62745 0.138889
3053 0 2 0.686275 5.62745 0.138889
3054 0 2 0.960784 5.62745 0.138889
3055 0 2 1.23529 5.62745 0.138889
3056 0 2 1.5098 5.62745 0.138889
3057 0 2 1.78431 5.62745 0.138889
3058 0 2 2.05882 5.62745 0.138889
3059 0 2 2.33333 5.62745 0.138889
1772 1296.33 1 3.23462 5.45145 0.246172
3064 642.752 2 3.85014 5.62926 0.0855847
3065 640.197 2 3.85285 5.64095 0.0927291
3089 640.197 2 3.85285 5.64095 0.0927291
24940 640.197 2 3.85285 5.64095 0.0927291
1036 1423.44 1 4.23167 5.48955 0.0378252
3041 290.3 2 4.51588 5.45842 0.183168
3042 290.3 2 4.51588 5.45842 0.183168
3067 245.296 2 4.55322 5.60019 0.00016222
3068 276.747 2 4.55483 5.51478 0.142751
3069 276.747 2 4.55483 5.51478 0.142751
3092 245.296 2 4.55322 5.60019 0.00016222
3666 290.3 2 4.51588 5.45842 0.183168
3667 290.3 2 4.51588 5.45842 0.183168
3692 290.3 2 4.51588 5.45842 0.183168
3693 276.747 2 4.55483 5.51478 0.142751
24967 245.296 2 4.55322 5.60019 0.00016222
1129 1055.02 1 5.20201 5.70037 0.0788469
1214 1642.28 1 5.55805 5.49731 0.171216
3072 911.133 2 5.85496 5.57443 0.200128
1240 1517.95 1 6.13057 5.65377 0.219659
3075 -9.83925 2 0.138038 5.71345 0.118281
3076 -4.03887 2 0.211351 5.87355 0.188788
24950 -9.83925 2 0.138038 5.71345 0.118281
3077 0 2 0.411765 5.90196 0.138889
3078 0 2 0.686275 5.90196 0.138889
3079 0 2 0.960784 5.90196 0.138889
3080 0 2 1.23529 5.90196 0.138889
3081 0 2 1.5098 5.90196 0.138889
3082 0 2 1.78431 5.90196 0.138889
3083 0 2 2.05882 5.90196 0.138889
3060 -8.07774 2 2.53894 5.70632 0.15963
3061 -12.1166 2 2.58428 5.75075 0.0531926
3084 0 2 2.33333 5.90196 0.138889
3085 -4.03887 2 2.57433 5.91517 0.124175
24936 -8.07774 2 2.55179 5.71688 0.0131387
3070 594.447 2 5.49318 5.82134 0.215051
3071 594.447 2 5.49318 5.82134 0.215051
3095 594.447 2 5.49318 5.82134 0.215051
3096 594.447 2 5.49318 5.82134 0.215051
3696 594.447 2 5.49318 5.82134 0.215051
3720 594.447 2 5.49318 5.82134 0.215051
3721 594.447 2 5.49318 5.82134 0.215051
1424 1723.44 1 5.77853 5.86421 0.108989
3097 886.416 2 6.07007 5.95655 0.145938
3098 886.416 2 6.07007 5.95655 0.145938
3102 0 2 0.411765 6.17647 0.138889
3103 0 2 0.686275 6.17647 0.138889
3104 0 2 0.960784 6.17647 0.138889
3105 0 2 1.23529 6.17647 0.138889
3106 0 2 1.5098 6.17647 0.138889
3107 0 2 1.78431 6.17647 0.138889
3108 0 2 2.05882 6.17647 0.138889
3109 0 2 2.33333 6.17647 0.138889
3086 -12.1166 2 2.62916 5.96539 0.0703617
3110 -4.03887 2 2.61554 6.17561 0.136125
24961 -12.1166 2 2.62916 5.96539 0.0703617
24986 -8.07774 2 2.60154 6.22151 0.0476502
3062 393.546 2 3.36837 6.00908 0.0672785
3087 393.546 2 3.36837 6.00908 0.0672785
3088 393.546 2 3.36837 6.00908 0.0672785
3113 393.546 2 3.36837 6.00908 0.0672785
3687 393.546 2 3.36837 6.00908 0.0672785
3688 393.546 2 3.36837 6.00908 0.0672785
24963 393.546 2 3.36837 6.00908 0.0672785
24988 393.546 2 3.36837 6.00908 0.0672785
1121 1311.89 1 3.67602 6.09699 0.0644212
3115 770.693 2 4.09178 6.01916 0.197055
3116 770.693 2 4.09178 6.01916 0.197055
24990 770.693 2 4.09178 6.01916 0.197055
1479 1079.05 1 4.31488 6.127 0.10085
3117 355.129 2 4.91112 6.18576 0.170292
3118 355.129 2 4.91112 6.18576 0.170292
3119 355.129 2 4.91112 6.18576 0.170292
3120 355.129 2 4.91112 6.18576 0.170292
3143 355.129 2 4.91112 6.18576 0.170292
3144 355.129 2 4.91112 6.18576 0.170292
3093 357.858 2 4.97389 5.98218 0.0176739
3094 358.172 2 4.98752 5.98657 0.0206168
24994 358.172 2 4.98752 5.98657 0.0206168
1487 2312.43 1 5.42312 6.06957 0.0177106
1755 2624.56 1 6.36159 6.01664 0.157513
3099 540.105 2 6.6249 6.09386 0.0982313
3100 540.105 2 6.6249 6.09386 0.0982313
3125 540.105 2 6.6249 6.09386 0.0982313
24974 540.105 2 6.6249 6.09386 0.0982313
24975 540.105 2 6.6249 6.09386 0.0982313
24999 540.105 2 6.6249 6.09386 0.0982313
25000 540.105 2 6.6249 6.09386 0.0982313
3101 -8.07774 2 0.167904 6.22639 0.176818
3126 -4.03887 2 0.187274 6.46118 0.138048
3127 0 2 0.411765 6.45098 0.138889
3128 0 2 0.686275 6.45098 0.138889
3129 0 2 0.960784 6.45098 0.138889
3130 0 2 1.23529 6.45098 0.138889
3131 0 2 1.5098 6.45098 0.138889
3132 0 2 1.78431 6.45098 0.138889
3133 0 2 2.05882 6.45098 0.138889
3134 0 2 2.33333 6.45098 0.138889
3135 0 2 2.60784 6.45098 0.138889
2410 302.844 1 3.31354 6.41568 0.123455
3114 624.648 2 3.71293 6.42881 0.0785886
3138 624.648 2 3.71293 6.42881 0.0785886
3139 624.648 2 3.71293 6.42881 0.0785886
1682 598.911 1 3.96343 6.34357 0.24706
1593 714.976 1 4.65854 6.37891 0.0130424
2094 510.048 1 5.36802 6.42568 0.248875
3145 800.883 2 5.18634 6.41658 0.053493
25020 800.883 2 5.18634 6.41658 0.053493
3121 324.101 2 5.6782 6.26103 0.067737
3122 324.101 2 5.6782 6.26103 0.067737
3146 324.101 2 5.6782 6.26103 0.067737
3147 324.101 2 5.6782 6.26103 0.067737
3746 324.101 2 5.6782 6.26103 0.067737
3747 324.101 2 5.6782 6.26103 0.067737
3772 324.101 2 5.6782 6.26103 0.067737
24996 326.528 2 5.68133 6.26878 0.0540957
24997 326.528 2 5.68133 6.26878 0.0540957
25021 326.528 2 5.68133 6.26878 0.0540957
1801 1422.24 1 6.00936 6.22698 0.0384062
2451 737.595 1 6.76752 6.37558 0.145104
3151 0 2 0.137255 6.72549 0.138889
3152 0 2 0.411765 6.72549 0.138889
3153 0 2 0.686275 6.72549 0.138889
3154 0 2 0.960784 6.72549 0.138889
3155 0 2 1.23529 6.72549 0.138889
3156 0 2 1.5098 6.72549 0.138889
3157 0 2 1.78431 6.72549 0.138889
3158 0 2 2.05882 6.72549 0.138889
3159 0 2 2.33333 6.72549 0.138889
3160 0 2 2.60784 6.72549 0.138889
3136 -8.07774 2 2.89634 6.50461 0.163536
3137 -8.07774 2 2.89634 6.50356 0.16582
3161 -4.03887 2 2.86527 6.72269 0.150338
1774 492.32 1 3.99715 6.69919 0.0202744
1656 425.112 1 4.33274 6.5293 0.247152
2168 404.228 1 4.99396 6.60705 0.148318
2167 1035.41 1 5.76654 6.55735 0.162759
2480 -29.0714 1 4.3279 6.94401 0.139605
3142 20.5045 2 4.68864 6.81576 0.0343708
3167 20.5045 2 4.68864 6.81576 0.0343708
3168 20.5045 2 4.68864 6.81576 0.0343708
25018 20.5045 2 4.68864 6.81576 0.0343708
25042 20.5045 2 4.68864 6.81576 0.0343708
25043 20.5045 2 4.68864 6.81576 0.0343708
25044 -19.7967 2 4.75755 6.96551 0.106449
2182 -56.2617 1 5.36496 6.80756 0.0605663
3172 -8.07774 2 6.04939 6.94915 0.247004
3173 -8.07774 2 6.18019 6.88822 0.0207849
3150 -4.03887 2 6.59686 6.76844 0.134725
3174 -8.07774 2 6.50914 6.76004 0.106324
3175 -4.03887 2 6.71643 6.80091 0.137549
3176 0 2 0.137255 0.137255 0.416667
3177 0 2 0.411765 0.137255 0.416667
3178 0 2 0.686275 0.137255 0.416667
3179 0 2 0.960784 0.137255 0.416667
3180 0 2 1.23529 0.137255 0.416667
3181 0 2 1.5098 0.137255 0.416667
3182 0 2 1.78431 0.137255 0.416667
3183 0 2 2.05882 0.137255 0.416667
3184 0 2 2.33333 0.137255 0.416667
3185 0 2 2.60784 0.137255 0.416667
3186 0 2 2.88235 0.137255 0.416667
3187 0 2 3.15686 0.137255 0.416667
3188 0 2 3.43137 0.137255 0.416667
3189 0 2 3.70588 0.137255 0.416667
3190 0 2 3.98039 0.137255 0.416667
3191 -4.03887 2 4.2374 0.183586 0.483093
3192 -4.03887 2 4.5474 0.154507 0.441401
3193 -4.50068e-37 2 4.80392 0.137255 0.416667
2569 -4.03887 2 5.05805 0.15519 0.326953
3194 0 2 5.07843 0.137255 0.416667
3195 0 2 5.35294 0.137255 0.416667
3196 0 2 5.62745 0.137255 0.416667
3197 0 2 5.90196 0.137255 0.416667
3198 0 2 6.17647 0.137255 0.416667
3199 0 2 6.45098 0.137255 0.416667
3200 0 2 6.72549 0.137255 0.416667
3201 0 2 0.137255 0.411765 0.416667
3202 0 2 0.411765 0.411765 0.416667
3203 0 2 0.686275 0.411765 0.416667
3204 0 2 0.960784 0.411765 0.416667
3205 0 2 1.23529 0.411765 0.416667
3206 0 2 1.5098 0.411765 0.416667
3207 0 2 1.78431 0.411765 0.416667
3208 0 2 2.05882 0.411765 0.416667
3209 0 2 2.33333 0.411765 0.416667
3210 0 2 2.60784 0.411765 0.416667
3211 0 2 2.88235 0.411765 0.416667
3212 0 2 3.15686 0.411765 0.416667
3213 0 2 3.43137 0.411765 0.416667
3214 0 2 3.70588 0.411765 0.416667
3215 0 2 3.98039 0.411765 0.416667
3216 0 2 4.2549 0.411765 0.416667
3217 0 2 4.52941 0.411765 0.416667
3218 0 2 4.80392 0.411765 0.416667
3219 0 2 5.07843 0.411765 0.416667
3220 0 2 5.35294 0.411765 0.416667
3221 0 2 5.62745 0.411765 0.416667
3222 0 2 5.90196 0.411765 0.416667
3223 0 2 6.17647 0.411765 0.416667
3224 0 2 6.45098 0.411765 0.416667
3225 0 2 6.72549 0.411765 0.416667
3226 0 2 0.137255 0.686275 0.416667
3227 0 2 0.411765 0.686275 0.416667
3228 0 2 0.686275 0.686275 0.416667
3229 0 2 0.960784 0.686275 0.416667
3230 0 2 1.23529 0.686275 0.416667
3231 0 2 1.5098 0.686275 0.416667
3232 0 2 1.78431 0.686275 0.416667
3233 0 2 2.05882 0.686275 0.416667
3234 0 2 2.33333 0.686275 0.416667
3235 0 2 2.60784 0.686275 0.416667
3236 0 2 2.88235 0.686275 0.416667
3237 0 2 3.15686 0.686275 0.416667
3238 0 2 3.43137 0.686275 0.416667
3239 0 2 3.70588 0.686275 0.416667
3240 0 2 3.98039 0.686275 0.416667
3241 0 2 4.2549 0.686275 0.416667
3242 0 2 4.52941 0.686275 0.416667
3243 0 2 4.80392 0.686275 0.416667
3244 0 2 5.07843 0.686275 0.416667
3245 0 2 5.35294 0.686275 0.416667
3246 0 2 5.62745 0.686275 0.416667
3247 0 2 5.90196 0.686275 0.416667
3248 0 2 6.17647 0.686275 0.416667
3249 0 2 6.45098 0.686275 0.416667
3250 0 2 6.72549 0.686275 0.416667
3251 0 2 0.137255 0.960784 0.416667
3252 0 2 0.411765 0.960784 0.416667
3253 0 2 0.686275 0.960784 0.416667
3254 0 2 0.960784 0.960784 0.416667
3255 0 2 1.23529 0.960784 0.416667
3256 0 2 1.5098 0.960784 0.416667
3257 0 2 1.78431 0.960784 0.416667
3258 0 2 2.05882 0.960784 0.416667
3259 0 2 2.33333 0.960784 0.416667
3260 0 2 2.60784 0.960784 0.416667
3261 0 2 2.88235 0.960784 0.416667
3262 0 2 3.15686 0.960784 0.416667
3263 0 2 3.43137 0.960784 0.416667
3264 0 2 3.70588 0.960784 0.416667
3265 0 2 3.98039 0.960784 0.416667