ITEM: TIMESTEP
5640
ITEM: NUMBER OF ATOMS
22514
ITEM: BOX BOUNDS pp pp pp
0.0000000000000000e+00 7.0000000000000000e+00
0.0000000000000000e+00 7.0000000000000000e+00
0.0000000000000000e+00 1.0000000000000000e+01
ITEM: ATOMS c_tempID c_tempRAD c_tempPE type x y z
15 0.236873 0 2 0.137255 0.137255 0.138889
16 0.236873 0 2 0.411765 0.137255 0.138889
17 0.236873 0 2 0.686275 0.137255 0.138889
18 0.236873 0 2 0.960784 0.137255 0.138889
19 0.236873 0 2 1.23529 0.137255 0.138889
20 0.236873 0 2 1.5098 0.137255 0.138889
21 0.236873 0 2 1.78431 0.137255 0.138889
22 0.236873 0 2 2.05882 0.137255 0.138889
23 0.236873 0 2 2.33333 0.137255 0.138889
24 0.236873 0 2 2.60784 0.137255 0.138889
25 0.236873 0 2 2.88235 0.137255 0.138889
26 0.236873 0 2 3.15686 0.137255 0.138889
27 0.236873 0 2 3.43137 0.137255 0.138889
28 0.236873 0 2 3.70588 0.137255 0.138889
29 0.236873 0 2 3.98039 0.137255 0.138889
30 0.236873 0 2 4.2549 0.137255 0.138889
31 0.236873 0 2 4.52941 0.137255 0.138889
32 0.236873 0 2 4.80392 0.137255 0.138889
33 0.236873 0 2 5.07843 0.137255 0.138889
34 0.236873 0 2 5.35294 0.137255 0.138889
35 0.236873 0 2 5.62745 0.137255 0.138889
36 0.236873 0 2 5.90196 0.137255 0.138889
37 0.236873 0 2 6.17647 0.137255 0.138889
38 0.236873 0 2 6.45098 0.137255 0.138889
39 0.236873 0 2 6.72549 0.137255 0.138889
40 0.236873 0 2 0.137255 0.411765 0.138889
41 0.236873 0 2 0.411765 0.411765 0.138889
42 0.236873 0 2 0.686275 0.411765 0.138889
43 0.236873 0 2 0.960784 0.411765 0.138889
44 0.236873 0 2 1.23529 0.411765 0.138889
45 0.236873 0 2 1.5098 0.411765 0.138889
46 0.236873 0 2 1.78431 0.411765 0.138889
47 0.236873 0 2 2.05882 0.411765 0.138889
48 0.236873 0 2 2.33333 0.411765 0.138889
49 0.236873 0 2 2.60784 0.411765 0.138889
50 0.236873 0 2 2.88235 0.411765 0.138889
51 0.236873 0 2 3.15686 0.411765 0.138889
52 0.236873 0 2 3.43137 0.411765 0.138889
53 0.236873 0 2 3.70588 0.411765 0.138889
54 0.236873 0 2 3.98039 0.411765 0.138889
55 0.236873 0 2 4.2549 0.411765 0.138889
56 0.236873 0 2 4.52941 0.411765 0.138889
57 0.236873 0 2 4.80392 0.411765 0.138889
58 0.236873 0 2 5.07843 0.411765 0.138889
59 0.236873 0 2 5.35294 0.411765 0.138889
60 0.236873 0 2 5.62745 0.411765 0.138889
61 0.236873 0 2 5.90196 0.411765 0.138889
62 0.236873 0 2 6.17647 0.411765 0.138889
63 0.236873 0 2 6.45098 0.411765 0.138889
64 0.236873 0 2 6.72549 0.411765 0.138889
65 0.236873 0 2 0.137255 0.686275 0.138889
66 0.236873 0 2 0.411765 0.686275 0.138889
67 0.236873 0 2 0.686275 0.686275 0.138889
68 0.236873 0 2 0.960784 0.686275 0.138889
69 0.236873 0 2 1.23529 0.686275 0.138889
70 0.236873 0 2 1.5098 0.686275 0.138889
71 0.236873 0 2 1.78431 0.686275 0.138889
72 0.236873 0 2 2.05882 0.686275 0.138889
73 0.236873 0 2 2.33333 0.686275 0.138889
74 0.236873 0 2 2.60784 0.686275 0.138889
75 0.236873 0 2 2.88235 0.686275 0.138889
76 0.236873 0 2 3.15686 0.686275 0.138889
77 0.236873 0 2 3.43137 0.686275 0.138889
78 0.236873 0 2 3.70588 0.686275 0.138889
79 0.236873 0 2 3.98039 0.686275 0.138889
80 0.236873 0 2 4.2549 0.686275 0.138889
81 0.236873 0 2 4.52941 0.686275 0.138889
82 0.236873 0 2 4.80392 0.686275 0.138889
83 0.236873 0 2 5.07843 0.686275 0.138889
84 0.236873 0 2 5.35294 0.686275 0.138889
85 0.236873 0 2 5.62745 0.686275 0.138889
86 0.236873 0 2 5.90196 0.686275 0.138889
87 0.236873 0 2 6.17647 0.686275 0.138889
88 0.236873 0 2 6.45098 0.686275 0.138889
89 0.236873 0 2 6.72549 0.686275 0.138889
90 0.236873 0 2 0.137255 0.960784 0.138889
91 0.236873 0 2 0.411765 0.960784 0.138889
92 0.236873 0 2 0.686275 0.960784 0.138889
93 0.236873 0 2 0.960784 0.960784 0.138889
94 0.236873 0 2 1.23529 0.960784 0.138889
95 0.236873 0 2 1.5098 0.960784 0.138889
96 0.236873 0 2 1.78431 0.960784 0.138889
97 0.236873 0 2 2.05882 0.960784 0.138889
98 0.236873 0 2 2.33333 0.960784 0.138889
99 0.236873 0 2 2.60784 0.960784 0.138889
100 0.236873 0 2 2.88235 0.960784 0.138889
101 0.236873 0 2 3.15686 0.960784 0.138889
102 0.236873 0 2 3.43137 0.960784 0.138889
103 0.236873 0 2 3.70588 0.960784 0.138889
104 0.236873 0 2 3.98039 0.960784 0.138889
105 0.236873 0 2 4.2549 0.960784 0.138889
106 0.236873 0 2 4.52941 0.960784 0.138889
107 0.236873 0 2 4.80392 0.960784 0.138889
108 0.236873 0 2 5.07843 0.960784 0.138889
109 0.236873 0 2 5.35294 0.960784 0.138889
110 0.236873 0 2 5.62745 0.960784 0.138889
111 0.236873 0 2 5.90196 0.960784 0.138889
112 0.236873 0 2 6.17647 0.960784 0.138889
113 0.236873 0 2 6.45098 0.960784 0.138889
114 0.236873 0 2 6.72549 0.960784 0.138889
115 0.236873 0 2 0.137255 1.23529 0.138889
116 0.236873 0 2 0.411765 1.23529 0.138889
117 0.236873 0 2 0.686275 1.23529 0.138889
118 0.236873 0 2 0.960784 1.23529 0.138889
119 0.236873 0 2 1.23529 1.23529 0.138889
120 0.236873 0 2 1.5098 1.23529 0.138889
121 0.236873 0 2 1.78431 1.23529 0.138889
122 0.236873 0 2 2.05882 1.23529 0.138889
123 0.236873 0 2 2.33333 1.23529 0.138889
124 0.236873 0 2 2.60784 1.23529 0.138889
125 0.236873 0 2 2.88235 1.23529 0.138889
126 0.236873 0 2 3.15686 1.23529 0.138889
127 0.236873 0 2 3.43137 1.23529 0.138889
128 0.236873 0 2 3.70588 1.23529 0.138889
129 0.236873 0 2 3.98039 1.23529 0.138889
130 0.236873 0 2 4.2549 1.23529 0.138889
131 0.236873 0 2 4.52941 1.23529 0.138889
132 0.236873 0 2 4.80392 1.23529 0.138889
133 0.236873 0 2 5.07843 1.23529 0.138889
134 0.236873 0 2 5.35294 1.23529 0.138889
135 0.236873 0 2 5.62745 1.23529 0.138889
136 0.236873 0 2 5.90196 1.23529 0.138889
137 0.236873 0 2 6.17647 1.23529 0.138889
138 0.236873 0 2 6.45098 1.23529 0.138889
139 0.236873 0 2 6.72549 1.23529 0.138889
140 0.236873 0 2 0.137255 1.5098 0.138889
141 0.236873 0 2 0.411765 1.5098 0.138889
142 0.236873 0 2 0.686275 1.5098 0.138889
143 0.236873 0 2 0.960784 1.5098 0.138889
144 0.236873 0 2 1.23529 1.5098 0.138889
145 0.236873 0 2 1.5098 1.5098 0.138889
146 0.236873 0 2 1.78431 1.5098 0.138889
147 0.236873 0 2 2.05882 1.5098 0.138889
148 0.236873 0 2 2.33333 1.5098 0.138889
149 0.236873 0 2 2.60784 1.5098 0.138889
150 0.236873 0 2 2.88235 1.5098 0.138889
151 0.236873 0 2 3.15686 1.5098 0.138889
152 0.236873 0 2 3.43137 1.5098 0.138889
153 0.236873 0 2 3.70588 1.5098 0.138889
154 0.236873 0 2 3.98039 1.5098 0.138889
155 0.236873 0 2 4.2549 1.5098 0.138889
156 0.236873 0 2 4.52941 1.5098 0.138889
157 0.236873 0 2 4.80392 1.5098 0.138889
158 0.236873 0 2 5.07843 1.5098 0.138889
159 0.236873 0 2 5.35294 1.5098 0.138889
160 0.236873 0 2 5.62745 1.5098 0.138889
161 0.236873 0 2 5.90196 1.5098 0.138889
162 0.236873 0 2 6.17647 1.5098 0.138889
163 0.236873 0 2 6.45098 1.5098 0.138889
164 0.236873 0 2 6.72549 1.5098 0.138889
165 0.236873 0 2 0.137255 1.78431 0.138889
166 0.236873 0 2 0.411765 1.78431 0.138889
167 0.236873 0 2 0.686275 1.78431 0.138889
168 0.236873 0 2 0.960784 1.78431 0.138889
169 0.236873 0 2 1.23529 1.78431 0.138889
170 0.236873 0 2 1.5098 1.78431 0.138889
171 0.236873 0 2 1.78431 1.78431 0.138889
172 0.236873 0 2 2.05882 1.78431 0.138889
173 0.236873 0 2 2.33333 1.78431 0.138889
174 0.236873 0 2 2.60784 1.78431 0.138889
175 0.236873 0 2 2.88235 1.78431 0.138889
176 0.236873 0 2 3.15686 1.78431 0.138889
177 0.236873 0 2 3.43137 1.78431 0.138889
178 0.236873 0 2 3.70588 1.78431 0.138889
179 0.236873 0 2 3.98039 1.78431 0.138889
180 0.236873 0 2 4.2549 1.78431 0.138889
181 0.236873 0 2 4.52941 1.78431 0.138889
182 0.236873 0 2 4.80392 1.78431 0.138889
183 0.236873 0 2 5.07843 1.78431 0.138889
184 0.236873 0 2 5.35294 1.78431 0.138889
185 0.236873 0 2 5.62745 1.78431 0.138889
186 0.236873 0 2 5.90196 1.78431 0.138889
187 0.236873 0 2 6.17647 1.78431 0.138889
188 0.236873 0 2 6.45098 1.78431 0.138889
189 0.236873 0 2 6.72549 1.78431 0.138889
190 0.236873 0 2 0.137255 2.05882 0.138889
191 0.236873 0 2 0.411765 2.05882 0.138889
192 0.236873 0 2 0.686275 2.05882 0.138889
193 0.236873 0 2 0.960784 2.05882 0.138889
194 0.236873 0 2 1.23529 2.05882 0.138889
195 0.236873 0 2 1.5098 2.05882 0.138889
196 0.236873 0 2 1.78431 2.05882 0.138889
197 0.236873 0 2 2.05882 2.05882 0.138889
198 0.236873 0 2 2.33333 2.05882 0.138889
199 0.236873 0 2 2.60784 2.05882 0.138889
200 0.236873 0 2 2.88235 2.05882 0.138889
201 0.236873 0 2 3.15686 2.05882 0.138889
202 0.236873 0 2 3.43137 2.05882 0.138889
203 0.236873 0 2 3.70588 2.05882 0.138889
204 0.236873 0 2 3.98039 2.05882 0.138889
205 0.236873 0 2 4.2549 2.05882 0.138889
206 0.236873 0 2 4.52941 2.05882 0.138889
207 0.236873 0 2 4.80392 2.05882 0.138889
208 0.236873 0 2 5.07843 2.05882 0.138889
209 0.236873 0 2 5.35294 2.05882 0.138889
210 0.236873 0 2 5.62745 2.05882 0.138889
211 0.236873 0 2 5.90196 2.05882 0.138889
212 0.236873 0 2 6.17647 2.05882 0.138889
213 0.236873 0 2 6.45098 2.05882 0.138889
214 0.236873 0 2 6.72549 2.05882 0.138889
215 0.236873 0 2 0.137255 2.33333 0.138889
216 0.236873 0 2 0.411765 2.33333 0.138889
217 0.236873 0 2 0.686275 2.33333 0.138889
218 0.236873 0 2 0.960784 2.33333 0.138889
219 0.236873 0 2 1.23529 2.33333 0.138889
220 0.236873 0 2 1.5098 2.33333 0.138889
221 0.236873 0 2 1.78431 2.33333 0.138889
222 0.236873 0 2 2.05882 2.33333 0.138889
223 0.236873 0 2 2.33333 2.33333 0.138889
224 0.236873 0 2 2.60784 2.33333 0.138889
225 0.236873 0 2 2.88235 2.33333 0.138889
226 0.236873 0 2 3.15686 2.33333 0.138889
227 0.236873 0 2 3.43137 2.33333 0.138889
228 0.236873 0 2 3.70588 2.33333 0.138889
229 0.236873 0 2 3.98039 2.33333 0.138889
230 0.236873 0 2 4.2549 2.33333 0.138889
231 0.236873 0 2 4.52941 2.33333 0.138889
232 0.236873 0 2 4.80392 2.33333 0.138889
233 0.236873 0 2 5.07843 2.33333 0.138889
234 0.236873 0 2 5.35294 2.33333 0.138889
235 0.236873 0 2 5.62745 2.33333 0.138889
236 0.236873 0 2 5.90196 2.33333 0.138889
237 0.236873 0 2 6.17647 2.33333 0.138889
238 0.236873 0 2 6.45098 2.33333 0.138889
239 0.236873 0 2 6.72549 2.33333 0.138889
240 0.236873 0 2 0.137255 2.60784 0.138889
241 0.236873 0 2 0.411765 2.60784 0.138889
242 0.236873 0 2 0.686275 2.60784 0.138889
243 0.236873 0 2 0.960784 2.60784 0.138889
244 0.236873 0 2 1.23529 2.60784 0.138889
245 0.236873 0 2 1.5098 2.60784 0.138889
246 0.236873 0 2 1.78431 2.60784 0.138889
247 0.236873 0 2 2.05882 2.60784 0.138889
248 0.236873 0 2 2.33333 2.60784 0.138889
249 0.236873 0 2 2.60784 2.60784 0.138889
250 0.236873 0 2 2.88235 2.60784 0.138889
251 0.236873 0 2 3.15686 2.60784 0.138889
252 0.236873 0 2 3.43137 2.60784 0.138889
253 0.236873 0 2 3.70588 2.60784 0.138889
254 0.236873 0 2 3.98039 2.60784 0.138889
255 0.236873 0 2 4.2549 2.60784 0.138889
256 0.236873 0 2 4.52941 2.60784 0.138889
257 0.236873 0 2 4.80392 2.60784 0.138889
258 0.236873 0 2 5.07843 2.60784 0.138889
259 0.236873 0 2 5.35294 2.60784 0.138889
260 0.236873 0 2 5.62745 2.60784 0.138889
261 0.236873 0 2 5.90196 2.60784 0.138889
262 0.236873 0 2 6.17647 2.60784 0.138889
263 0.236873 0 2 6.45098 2.60784 0.138889
264 0.236873 0 2 6.72549 2.60784 0.138889
265 0.236873 0 2 0.137255 2.88235 0.138889
266 0.236873 0 2 0.411765 2.88235 0.138889
267 0.236873 0 2 0.686275 2.88235 0.138889
268 0.236873 0 2 0.960784 2.88235 0.138889
269 0.236873 0 2 1.23529 2.88235 0.138889
270 0.236873 0 2 1.5098 2.88235 0.138889
271 0.236873 0 2 1.78431 2.88235 0.138889
272 0.236873 0 2 2.05882 2.88235 0.138889
273 0.236873 0 2 2.33333 2.88235 0.138889
274 0.236873 0 2 2.60784 2.88235 0.138889
275 0.236873 0 2 2.88235 2.88235 0.138889
276 0.236873 0 2 3.15686 2.88235 0.138889
277 0.236873 0 2 3.43137 2.88235 0.138889
278 0.236873 0 2 3.70588 2.88235 0.138889
279 0.236873 0 2 3.98039 2.88235 0.138889
280 0.236873 0 2 4.2549 2.88235 0.138889
281 0.236873 0 2 4.52941 2.88235 0.138889
282 0.236873 0 2 4.80392 2.88235 0.138889
283 0.236873 0 2 5.07843 2.88235 0.138889
284 0.236873 0 2 5.35294 2.88235 0.138889
285 0.236873 0 2 5.62745 2.88235 0.138889
286 0.236873 0 2 5.90196 2.88235 0.138889
287 0.236873 0 2 6.17647 2.88235 0.138889
288 0.236873 0 2 6.45098 2.88235 0.138889
289 0.236873 0 2 6.72549 2.88235 0.138889
290 0.236873 0 2 0.137255 3.15686 0.138889
291 0.236873 0 2 0.411765 3.15686 0.138889
292 0.236873 0 2 0.686275 3.15686 0.138889
293 0.236873 0 2 0.960784 3.15686 0.138889
294 0.236873 0 2 1.23529 3.15686 0.138889
295 0.236873 0 2 1.5098 3.15686 0.138889
296 0.236873 0 2 1.78431 3.15686 0.138889
297 0.236873 0 2 2.05882 3.15686 0.138889
298 0.236873 0 2 2.33333 3.15686 0.138889
299 0.236873 0 2 2.60784 3.15686 0.138889
300 0.236873 0 2 2.88235 3.15686 0.138889
301 0.236873 0 2 3.15686 3.15686 0.138889
302 0.236873 0 2 3.43137 3.15686 0.138889
303 0.236873 0 2 3.70588 3.15686 0.138889
304 0.236873 0 2 3.98039 3.15686 0.138889
305 0.236873 0 2 4.2549 3.15686 0.138889
306 0.236873 0 2 4.52941 3.15686 0.138889
307 0.236873 0 2 4.80392 3.15686 0.138889
308 0.236873 0 2 5.07843 3.15686 0.138889
309 0.236873 0 2 5.35294 3.15686 0.138889
310 0.236873 0 2 5.62745 3.15686 0.138889
311 0.236873 0 2 5.90196 3.15686 0.138889
312 0.236873 0 2 6.17647 3.15686 0.138889
313 0.236873 0 2 6.45098 3.15686 0.138889
314 0.236873 0 2 6.72549 3.15686 0.138889
315 0.236873 0 2 0.137255 3.43137 0.138889
316 0.236873 0 2 0.411765 3.43137 0.138889
317 0.236873 0 2 0.686275 3.43137 0.138889
318 0.236873 0 2 0.960784 3.43137 0.138889
319 0.236873 0 2 1.23529 3.43137 0.138889
320 0.236873 0 2 1.5098 3.43137 0.138889
321 0.236873 0 2 1.78431 3.43137 0.138889
322 0.236873 0 2 2.05882 3.43137 0.138889
323 0.236873 0 2 2.33333 3.43137 0.138889
324 0.236873 0 2 2.60784 3.43137 0.138889
325 0.236873 0 2 2.88235 3.43137 0.138889
326 0.236873 0 2 3.15686 3.43137 0.138889
327 0.236873 0 2 3.43137 3.43137 0.138889
328 0.236873 0 2 3.70588 3.43137 0.138889
329 0.236873 0 2 3.98039 3.43137 0.138889
330 0.236873 0 2 4.2549 3.43137 0.138889
331 0.236873 0 2 4.52941 3.43137 0.138889
332 0.236873 0 2 4.80392 3.43137 0.138889
333 0.236873 0 2 5.07843 3.43137 0.138889
334 0.236873 0 2 5.35294 3.43137 0.138889
335 0.236873 0 2 5.62745 3.43137 0.138889
336 0.236873 0 2 5.90196 3.43137 0.138889
337 0.236873 0 2 6.17647 3.43137 0.138889
338 0.236873 0 2 6.45098 3.43137 0.138889
339 0.236873 0 2 6.72549 3.43137 0.138889
340 0.236873 0 2 0.137255 3.70588 0.138889
341 0.236873 0 2 0.411765 3.70588 0.138889
342 0.236873 0 2 0.686275 3.70588 0.138889
343 0.236873 0 2 0.960784 3.70588 0.138889
344 0.236873 0 2 1.23529 3.70588 0.138889
345 0.236873 0 2 1.5098 3.70588 0.138889
346 0.236873 0 2 1.78431 3.70588 0.138889
347 0.236873 0 2 2.05882 3.70588 0.138889
348 0.236873 0 2 2.33333 3.70588 0.138889
349 0.236873 0 2 2.60784 3.70588 0.138889
350 0.236873 0 2 2.88235 3.70588 0.138889
351 0.236873 0 2 3.15686 3.70588 0.138889
352 0.236873 0 2 3.43137 3.70588 0.138889
353 0.236873 0 2 3.70588 3.70588 0.138889
354 0.236873 0 2 3.98039 3.70588 0.138889
355 0.236873 0 2 4.2549 3.70588 0.138889
356 0.236873 0 2 4.52941 3.70588 0.138889
357 0.236873 0 2 4.80392 3.70588 0.138889
358 0.236873 0 2 5.07843 3.70588 0.138889
359 0.236873 0 2 5.35294 3.70588 0.138889
360 0.236873 0 2 5.62745 3.70588 0.138889
361 0.236873 0 2 5.90196 3.70588 0.138889
362 0.236873 0 2 6.17647 3.70588 0.138889
363 0.236873 0 2 6.45098 3.70588 0.138889
364 0.236873 0 2 6.72549 3.70588 0.138889
365 0.236873 0 2 0.137255 3.98039 0.138889
366 0.236873 0 2 0.411765 3.98039 0.138889
367 0.236873 0 2 0.686275 3.98039 0.138889
368 0.236873 0 2 0.960784 3.98039 0.138889
369 0.236873 0 2 1.23529 3.98039 0.138889
370 0.236873 0 2 1.5098 3.98039 0.138889
371 0.236873 0 2 1.78431 3.98039 0.138889
372 0.236873 0 2 2.05882 3.98039 0.138889
373 0.236873 0 2 2.33333 3.98039 0.138889
374 0.236873 0 2 2.60784 3.98039 0.138889
375 0.236873 0 2 2.88235 3.98039 0.138889
376 0.236873 0 2 3.15686 3.98039 0.138889
377 0.236873 0 2 3.43137 3.98039 0.138889
378 0.236873 0 2 3.70588 3.98039 0.138889
379 0.236873 0 2 3.98039 3.98039 0.138889
380 0.236873 0 2 4.2549 3.98039 0.138889
381 0.236873 0 2 4.52941 3.98039 0.138889
382 0.236873 0 2 4.80392 3.98039 0.138889
383 0.236873 0 2 5.07843 3.98039 0.138889
384 0.236873 0 2 5.35294 3.98039 0.138889
385 0.236873 0 2 5.62745 3.98039 0.138889
386 0.236873 0 2 5.90196 3.98039 0.138889
387 0.236873 0 2 6.17647 3.98039 0.138889
388 0.236873 0 2 6.45098 3.98039 0.138889
389 0.236873 0 2 6.72549 3.98039 0.138889
390 0.236873 0 2 0.137255 4.2549 0.138889
391 0.236873 0 2 0.411765 4.2549 0.138889
392 0.236873 0 2 0.686275 4.2549 0.138889
393 0.236873 0 2 0.960784 4.2549 0.138889
394 0.236873 0 2 1.23529 4.2549 0.138889
395 0.236873 0 2 1.5098 4.2549 0.138889
396 0.236873 0 2 1.78431 4.2549 0.138889
397 0.236873 0 2 2.05882 4.2549 0.138889
398 0.236873 0 2 2.33333 4.2549 0.138889
399 0.236873 0 2 2.60784 4.2549 0.138889
400 0.236873 0 2 2.88235 4.2549 0.138889
401 0.236873 0 2 3.15686 4.2549 0.138889
402 0.236873 0 2 3.43137 4.2549 0.138889
403 0.236873 0 2 3.70588 4.2549 0.138889
404 0.236873 0 2 3.98039 4.2549 0.138889
405 0.236873 0 2 4.2549 4.2549 0.138889
406 0.236873 0 2 4.52941 4.2549 0.138889
407 0.236873 0 2 4.80392 4.2549 0.138889
408 0.236873 0 2 5.07843 4.2549 0.138889
409 0.236873 0 2 5.35294 4.2549 0.138889
410 0.236873 0 2 5.62745 4.2549 0.138889
411 0.236873 0 2 5.90196 4.2549 0.138889
412 0.236873 0 2 6.17647 4.2549 0.138889
413 0.236873 0 2 6.45098 4.2549 0.138889
414 0.236873 0 2 6.72549 4.2549 0.138889
415 0.236873 0 2 0.137255 4.52941 0.138889
416 0.236873 0 2 0.411765 4.52941 0.138889
417 0.236873 0 2 0.686275 4.52941 0.138889
418 0.236873 0 2 0.960784 4.52941 0.138889
419 0.236873 0 2 1.23529 4.52941 0.138889
420 0.236873 0 2 1.5098 4.52941 0.138889
421 0.236873 0 2 1.78431 4.52941 0.138889
422 0.236873 0 2 2.05882 4.52941 0.138889
423 0.236873 0 2 2.33333 4.52941 0.138889
424 0.236873 0 2 2.60784 4.52941 0.138889
425 0.236873 0 2 2.88235 4.52941 0.138889
426 0.236873 0 2 3.15686 4.52941 0.138889
427 0.236873 0 2 3.43137 4.52941 0.138889
428 0.236873 0 2 3.70588 4.52941 0.138889
429 0.236873 0 2 3.98039 4.52941 0.138889
430 0.236873 0 2 4.2549 4.52941 0.138889
431 0.236873 0 2 4.52941 4.52941 0.138889
432 0.236873 0 2 4.80392 4.52941 0.138889
433 0.236873 0 2 5.07843 4.52941 0.138889
434 0.236873 0 2 5.35294 4.52941 0.138889
435 0.236873 0 2 5.62745 4.52941 0.138889
436 0.236873 0 2 5.90196 4.52941 0.138889
437 0.236873 0 2 6.17647 4.52941 0.138889
438 0.236873 0 2 6.45098 4.52941 0.138889
439 0.236873 0 2 6.72549 4.52941 0.138889
440 0.236873 0 2 0.137255 4.80392 0.138889
441 0.236873 0 2 0.411765 4.80392 0.138889
442 0.236873 0 2 0.686275 4.80392 0.138889
443 0.236873 0 2 0.960784 4.80392 0.138889
444 0.236873 0 2 1.23529 4.80392 0.138889
445 0.236873 0 2 1.5098 4.80392 0.138889
446 0.236873 0 2 1.78431 4.80392 0.138889
447 0.236873 0 2 2.05882 4.80392 0.138889
448 0.236873 0 2 2.33333 4.80392 0.138889
449 0.236873 0 2 2.60784 4.80392 0.138889
450 0.236873 0 2 2.88235 4.80392 0.138889
451 0.236873 0 2 3.15686 4.80392 0.138889
452 0.236873 0 2 3.43137 4.80392 0.138889
453 0.236873 0 2 3.70588 4.80392 0.138889
454 0.236873 0 2 3.98039 4.80392 0.138889
455 0.236873 0 2 4.2549 4.80392 0.138889
456 0.236873 0 2 4.52941 4.80392 0.138889
457 0.236873 0 2 4.80392 4.80392 0.138889
458 0.236873 0 2 5.07843 4.80392 0.138889
459 0.236873 0 2 5.35294 4.80392 0.138889
460 0.236873 0 2 5.62745 4.80392 0.138889
461 0.236873 0 2 5.90196 4.80392 0.138889
462 0.236873 0 2 6.17647 4.80392 0.138889
463 0.236873 0 2 6.45098 4.80392 0.138889
464 0.236873 0 2 6.72549 4.80392 0.138889
465 0.236873 0 2 0.137255 5.07843 0.138889
466 0.236873 0 2 0.411765 5.07843 0.138889
467 0.236873 0 2 0.686275 5.07843 0.138889
468 0.236873 0 2 0.960784 5.07843 0.138889
469 0.236873 0 2 1.23529 5.07843 0.138889
470 0.236873 0 2 1.5098 5.07843 0.138889
471 0.236873 0 2 1.78431 5.07843 0.138889
472 0.236873 0 2 2.05882 5.07843 0.138889
473 0.236873 0 2 2.33333 5.07843 0.138889
474 0.236873 0 2 2.60784 5.07843 0.138889
475 0.236873 0 2 2.88235 5.07843 0.138889
476 0.236873 0 2 3.15686 5.07843 0.138889
477 0.236873 0 2 3.43137 5.07843 0.138889
478 0.236873 0 2 3.70588 5.07843 0.138889
479 0.236873 0 2 3.98039 5.07843 0.138889
480 0.236873 0 2 4.2549 5.07843 0.138889
481 0.236873 0 2 4.52941 5.07843 0.138889
482 0.236873 0 2 4.80392 5.07843 0.138889
483 0.236873 0 2 5.07843 5.07843 0.138889
484 0.236873 0 2 5.35294 5.07843 0.138889
485 0.236873 0 2 5.62745 5.07843 0.138889
486 0.236873 0 2 5.90196 5.07843 0.138889
487 0.236873 0 2 6.17647 5.07843 0.138889
488 0.236873 0 2 6.45098 5.07843 0.138889
489 0.236873 0 2 6.72549 5.07843 0.138889
490 0.236873 0 2 0.137255 5.35294 0.138889
491 0.236873 0 2 0.411765 5.35294 0.138889
492 0.236873 0 2 0.686275 5.35294 0.138889
493 0.236873 0 2 0.960784 5.35294 0.138889
494 0.236873 0 2 1.23529 5.35294 0.138889
495 0.236873 0 2 1.5098 5.35294 0.138889
496 0.236873 0 2 1.78431 5.35294 0.138889
497 0.236873 0 2 2.05882 5.35294 0.138889
498 0.236873 0 2 2.33333 5.35294 0.138889
499 0.236873 0 2 2.60784 5.35294 0.138889
500 0.236873 0 2 2.88235 5.35294 0.138889
501 0.236873 0 2 3.15686 5.35294 0.138889
502 0.236873 0 2 3.43137 5.35294 0.138889
503 0.236873 0 2 3.70588 5.35294 0.138889
504 0.236873 0 2 3.98039 5.35294 0.138889
505 0.236873 0 2 4.2549 5.35294 0.138889
506 0.236873 0 2 4.52941 5.35294 0.138889
507 0.236873 0 2 4.80392 5.35294 0.138889
508 0.236873 0 2 5.07843 5.35294 0.138889
509 0.236873 0 2 5.35294 5.35294 0.138889
510 0.236873 0 2 5.62745 5.35294 0.138889
511 0.236873 0 2 5.90196 5.35294 0.138889
512 0.236873 0 2 6.17647 5.35294 0.138889
513 0.236873 0 2 6.45098 5.35294 0.138889
514 0.236873 0 2 6.72549 5.35294 0.138889
515 0.236873 0 2 0.137255 5.62745 0.138889
516 0.236873 0 2 0.411765 5.62745 0.138889
517 0.236873 0 2 0.686275 5.62745 0.138889
518 0.236873 0 2 0.960784 5.62745 0.138889
519 0.236873 0 2 1.23529 5.62745 0.138889
520 0.236873 0 2 1.5098 5.62745 0.138889
521 0.236873 0 2 1.78431 5.62745 0.138889
522 0.236873 0 2 2.05882 5.62745 0.138889
523 0.236873 0 2 2.33333 5.62745 0.138889
524 0.236873 0 2 2.60784 5.62745 0.138889
525 0.236873 0 2 2.88235 5.62745 0.138889
526 0.236873 0 2 3.15686 5.62745 0.138889
527 0.236873 0 2 3.43137 5.62745 0.138889
528 0.236873 0 2 3.70588 5.62745 0.138889
529 0.236873 0 2 3.98039 5.62745 0.138889
530 0.236873 0 2 4.2549 5.62745 0.138889
531 0.236873 0 2 4.52941 5.62745 0.138889
532 0.236873 0 2 4.80392 5.62745 0.138889
533 0.236873 0 2 5.07843 5.62745 0.138889
534 0.236873 0 2 5.35294 5.62745 0.138889
535 0.236873 0 2 5.62745 5.62745 0.138889
536 0.236873 0 2 5.90196 5.62745 0.138889
537 0.236873 0 2 6.17647 5.62745 0.138889
538 0.236873 0 2 6.45098 5.62745 0.138889
539 0.236873 0 2 6.72549 5.62745 0.138889
540 0.236873 0 2 0.137255 5.90196 0.138889
541 0.236873 0 2 0.411765 5.90196 0.138889
542 0.236873 0 2 0.686275 5.90196 0.138889
543 0.236873 0 2 0.960784 5.90196 0.138889
544 0.236873 0 2 1.23529 5.90196 0.138889
545 0.236873 0 2 1.5098 5.90196 0.138889
546 0.236873 0 2 1.78431 5.90196 0.138889
547 0.236873 0 2 2.05882 5.90196 0.138889
548 0.236873 0 2 2.33333 5.90196 0.138889
549 0.236873 0 2 2.60784 5.90196 0.138889
550 0.236873 0 2 2.88235 5.90196 0.138889
551 0.236873 0 2 3.15686 5.90196 0.138889
552 0.236873 0 2 3.43137 5.90196 0.138889
553 0.236873 0 2 3.70588 5.90196 0.138889
554 0.236873 0 2 3.98039 5.90196 0.138889
555 0.236873 0 2 4.2549 5.90196 0.138889
556 0.236873 0 2 4.52941 5.90196 0.138889
557 0.236873 0 2 4.80392 5.90196 0.138889
558 0.236873 0 2 5.07843 5.90196 0.138889
559 0.236873 0 2 5.35294 5.90196 0.138889
560 0.236873 0 2 5.62745 5.90196 0.138889
561 0.236873 0 2 5.90196 5.90196 0.138889
562 0.236873 0 2 6.17647 5.90196 0.138889
563 0.236873 0 2 6.45098 5.90196 0.138889
564 0.236873 0 2 6.72549 5.90196 0.138889
565 0.236873 0 2 0.137255 6.17647 0.138889
566 0.236873 0 2 0.411765 6.17647 0.138889
567 0.236873 0 2 0.686275 6.17647 0.138889
568 0.236873 0 2 0.960784 6.17647 0.138889
569 0.236873 0 2 1.23529 6.17647 0.138889
570 0.236873 0 2 1.5098 6.17647 0.138889
571 0.236873 0 2 1.78431 6.17647 0.138889
572 0.236873 0 2 2.05882 6.17647 0.138889
573 0.236873 0 2 2.33333 6.17647 0.138889
574 0.236873 0 2 2.60784 6.17647 0.138889
575 0.236873 0 2 2.88235 6.17647 0.138889
576 0.236873 0 2 3.15686 6.17647 0.138889
577 0.236873 0 2 3.43137 6.17647 0.138889
578 0.236873 0 2 3.70588 6.17647 0.138889
579 0.236873 0 2 3.98039 6.17647 0.138889
580 0.236873 0 2 4.2549 6.17647 0.138889
581 0.236873 0 2 4.52941 6.17647 0.138889
582 0.236873 0 2 4.80392 6.17647 0.138889
583 0.236873 0 2 5.07843 6.17647 0.138889
584 0.236873 0 2 5.35294 6.17647 0.138889
585 0.236873 0 2 5.62745 6.17647 0.138889
586 0.236873 0 2 5.90196 6.17647 0.138889
587 0.236873 0 2 6.17647 6.17647 0.138889
588 0.236873 0 2 6.45098 6.17647 0.138889
589 0.236873 0 2 6.72549 6.17647 0.138889
590 0.236873 0 2 0.137255 6.45098 0.138889
591 0.236873 0 2 0.411765 6.45098 0.138889
592 0.236873 0 2 0.686275 6.45098 0.138889
593 0.236873 0 2 0.960784 6.45098 0.138889
594 0.236873 0 2 1.23529 6.45098 0.138889
595 0.236873 0 2 1.5098 6.45098 0.138889
596 0.236873 0 2 1.78431 6.45098 0.138889
597 0.236873 0 2 2.05882 6.45098 0.138889
598 0.236873 0 2 2.33333 6.45098 0.138889
599 0.236873 0 2 2.60784 6.45098 0.138889
600 0.236873 0 2 2.88235 6.45098 0.138889
601 0.236873 0 2 3.15686 6.45098 0.138889
602 0.236873 0 2 3.43137 6.45098 0.138889
603 0.236873 0 2 3.70588 6.45098 0.138889
604 0.236873 0 2 3.98039 6.45098 0.138889
605 0.236873 0 2 4.2549 6.45098 0.138889
606 0.236873 0 2 4.52941 6.45098 0.138889
607 0.236873 0 2 4.80392 6.45098 0.138889
608 0.236873 0 2 5.07843 6.45098 0.138889
609 0.236873 0 2 5.35294 6.45098 0.138889
610 0.236873 0 2 5.62745 6.45098 0.138889
611 0.236873 0 2 5.90196 6.45098 0.138889
612 0.236873 0 2 6.17647 6.45098 0.138889
613 0.236873 0 2 6.45098 6.45098 0.138889
614 0.236873 0 2 6.72549 6.45098 0.138889
615 0.236873 0 2 0.137255 6.72549 0.138889
616 0.236873 0 2 0.411765 6.72549 0.138889
617 0.236873 0 2 0.686275 6.72549 0.138889
618 0.236873 0 2 0.960784 6.72549 0.138889
619 0.236873 0 2 1.23529 6.72549 0.138889
620 0.236873 0 2 1.5098 6.72549 0.138889
621 0.236873 0 2 1.78431 6.72549 0.138889
622 0.236873 0 2 2.05882 6.72549 0.138889
623 0.236873 0 2 2.33333 6.72549 0.138889
624 0.236873 0 2 2.60784 6.72549 0.138889
625 0.236873 0 2 2.88235 6.72549 0.138889
626 0.236873 0 2 3.15686 6.72549 0.138889
627 0.236873 0 2 3.43137 6.72549 0.138889
628 0.236873 0 2 3.70588 6.72549 0.138889
629 0.236873 0 2 3.98039 6.72549 0.138889
630 0.236873 0 2 4.2549 6.72549 0.138889
631 0.236873 0 2 4.52941 6.72549 0.138889
632 0.236873 0 2 4.80392 6.72549 0.138889
633 0.236873 0 2 5.07843 6.72549 0.138889
634 0.236873 0 2 5.35294 6.72549 0.138889
635 0.236873 0 2 5.62745 6.72549 0.138889
636 0.236873 0 2 5.90196 6.72549 0.138889
637 0.236873 0 2 6.17647 6.72549 0.138889
638 0.236873 0 2 6.45098 6.72549 0.138889
639 0.236873 0 2 6.72549 6.72549 0.138889
640 0.236873 0 2 0.137255 0.137255 0.416667
641 0.236873 0 2 0.411765 0.137255 0.416667
642 0.236873 0 2 0.686275 0.137255 0.416667
643 0.236873 0 2 0.960784 0.137255 0.416667
644 0.236873 0 2 1.23529 0.137255 0.416667
645 0.236873 0 2 1.5098 0.137255 0.416667
646 0.236873 0 2 1.78431 0.137255 0.416667
647 0.236873 0 2 2.05882 0.137255 0.416667
648 0.236873 0 2 2.33333 0.137255 0.416667
649 0.236873 0 2 2.60784 0.137255 0.416667
650 0.236873 0 2 2.88235 0.137255 0.416667
651 0.236873 0 2 3.15686 0.137255 0.416667
652 0.236873 0 2 3.43137 0.137255 0.416667
653 0.236873 0 2 3.70588 0.137255 0.416667
654 0.236873 0 2 3.98039 0.137255 0.416667
655 0.236873 0 2 4.2549 0.137255 0.416667
656 0.236873 0 2 4.52941 0.137255 0.416667
657 0.236873 0 2 4.80392 0.137255 0.416667
658 0.236873 0 2 5.07843 0.137255 0.416667
659 0.236873 0 2 5.35294 0.137255 0.416667
660 0.236873 0 2 5.62745 0.137255 0.416667
661 0.236873 0 2 5.90196 0.137255 0.416667
662 0.236873 0 2 6.17647 0.137255 0.416667
663 0.236873 0 2 6.45098 0.137255 0.416667
664 0.236873 0 2 6.72549 0.137255 0.416667
665 0.236873 0 2 0.137255 0.411765 0.416667
666 0.236873 0 2 0.411765 0.411765 0.416667
667 0.236873 0 2 0.686275 0.411765 0.416667
668 0.236873 0 2 0.960784 0.411765 0.416667
669 0.236873 0 2 1.23529 0.411765 0.416667
670 0.236873 0 2 1.5098 0.411765 0.416667
671 0.236873 0 2 1.78431 0.411765 0.416667
672 0.236873 0 2 2.05882 0.411765 0.416667
673 0.236873 0 2 2.33333 0.411765 0.416667
674 0.236873 0 2 2.60784 0.411765 0.416667
675 0.236873 0 2 2.88235 0.411765 0.416667
676 0.236873 0 2 3.15686 0.411765 0.416667
677 0.236873 0 2 3.43137 0.411765 0.416667
678 0.236873 0 2 3.70588 0.411765 0.416667
679 0.236873 0 2 3.98039 0.411765 0.416667
680 0.236873 0 2 4.2549 0.411765 0.416667
681 0.236873 0 2 4.52941 0.411765 0.416667
682 0.236873 0 2 4.80392 0.411765 0.416667
683 0.236873 0 2 5.07843 0.411765 0.416667
684 0.236873 0 2 5.35294 0.411765 0.416667
685 0.236873 0 2 5.62745 0.411765 0.416667
686 0.236873 0 2 5.90196 0.411765 0.416667
687 0.236873 0 2 6.17647 0.411765 0.416667
688 0.236873 0 2 6.45098 0.411765 0.416667
689 0.236873 0 2 6.72549 0.411765 0.416667
690 0.236873 0 2 0.137255 0.686275 0.416667
691 0.236873 0 2 0.411765 0.686275 0.416667
692 0.236873 0 2 0.686275 0.686275 0.416667
693 0.236873 0 2 0.960784 0.686275 0.416667
694 0.236873 0 2 1.23529 0.686275 0.416667
695 0.236873 0 2 1.5098 0.686275 0.416667
696 0.236873 0 2 1.78431 0.686275 0.416667
697 0.236873 0 2 2.05882 0.686275 0.416667
698 0.236873 0 2 2.33333 0.686275 0.416667
699 0.236873 0 2 2.60784 0.686275 0.416667
700 0.236873 0 2 2.88235 0.686275 0.416667
701 0.236873 0 2 3.15686 0.686275 0.416667
702 0.236873 0 2 3.43137 0.686275 0.416667
703 0.236873 0 2 3.70588 0.686275 0.416667
704 0.236873 0 2 3.98039 0.686275 0.416667
705 0.236873 0 2 4.2549 0.686275 0.416667
706 0.236873 0 2 4.52941 0.686275 0.416667
707 0.236873 0 2 4.80392 0.686275 0.416667
708 0.236873 0 2 5.07843 0.686275 0.416667
709 0.236873 0 2 5.35294 0.686275 0.416667
710 0.236873 0 2 5.62745 0.686275 0.416667
711 0.236873 0 2 5.90196 0.686275 0.416667
712 0.236873 0 2 6.17647 0.686275 0.416667
713 0.236873 0 2 6.45098 0.686275 0.416667
714 0.236873 0 2 6.72549 0.686275 0.416667
715 0.236873 0 2 0.137255 0.960784 0.416667
716 0.236873 0 2 0.411765 0.960784 0.416667
717 0.236873 0 2 0.686275 0.960784 0.416667
718 0.236873 0 2 0.960784 0.960784 0.416667
719 0.236873 0 2 1.23529 0.960784 0.416667