LAMMPS (24 Dec 2020)
log log.Antonello.lammps
