LAMMPS (22 Aug 2018)
log log.Bernini.lammps
s
