ITEM: TIMESTEP
2270
ITEM: NUMBER OF ENTRIES
12
ITEM: BOX BOUNDS pp pp pp
0.0000000000000000e+00 1.0000000000000000e+01
0.0000000000000000e+00 1.0000000000000000e+01
0.0000000000000000e+00 1.0000000000000000e+01
ITEM: ENTRIES index c_tempPAT[1] c_tempPAT[2] c_tempPAT[3] c_tempPAT[4] c_tempDIST 
1 144 169 1 1 0.428505 
2 169 345 1 1 0.428505 
3 197 345 1 1 0.428505 
4 345 347 1 1 0.428505 
5 399 405 1 1 0.428505 
6 347 373 1 1 0.428505 
7 347 513 1 1 0.428505 
8 405 434 1 1 0.428505 
9 514 513 1 1 0.428505 
10 514 604 1 1 0.428505 
11 507 626 1 1 0.428505 
12 513 617 1 1 0.428505 
ITEM: TIMESTEP
2271
ITEM: NUMBER OF ENTRIES
12
ITEM: BOX BOUNDS pp pp pp
0.0000000000000000e+00 1.0000000000000000e+01
0.0000000000000000e+00 1.0000000000000000e+01
0.0000000000000000e+00 1.0000000000000000e+01
ITEM: ENTRIES index c_tempPAT[1] c_tempPAT[2] c_tempPAT[3] c_tempPAT[4] c_tempDIST 
1 144 169 1 1 0.428505 
2 169 345 1 1 0.428505 
3 197 345 1 1 0.428505 
4 345 347 1 1 0.428505 
5 399 405 1 1 0.428505 
6 347 373 1 1 0.428505 
7 347 513 1 1 0.428505 
8 405 434 1 1 0.428505 
9 514 513 1 1 0.428505 
10 514 604 1 1 0.428505 
11 507 626 1 1 0.428505 
12 513 617 1 1 0.428505 
