ITEM: TIMESTEP
2270
ITEM: NUMBER OF ATOMS
25
ITEM: BOX BOUNDS pp pp pp
0.0000000000000000e+00 1.0000000000000000e+01
0.0000000000000000e+00 1.0000000000000000e+01
0.0000000000000000e+00 1.0000000000000000e+01
ITEM: ATOMS c_tempID c_tempRAD c_tempPE type x y z
144 0.236873 1.12838e-06 1 5.15098 3.93898 3.63598
169 0.236873 2.25676e-06 1 5.15098 4.24198 3.93898
197 0.236873 1.12838e-06 1 5.15098 4.84798 3.93898
310 0.236873 0 1 4.24198 3.63598 4.24198
345 0.236873 3.38514e-06 1 5.15098 4.54498 4.24198
399 0.236873 1.12838e-06 1 3.93898 5.75697 4.24198
347 0.236873 3.38514e-06 1 4.84798 4.54498 4.54498
373 0.236873 1.12838e-06 1 4.54498 4.84798 4.54498
405 0.236873 2.25676e-06 1 4.24198 5.75697 4.54498
434 0.236873 1.12838e-06 1 4.54498 6.05997 4.54498
514 0.236873 2.25676e-06 1 5.45398 4.24198 4.84798
507 0.236873 1.12838e-06 1 3.33299 4.54498 4.84798
509 0.236873 0 1 3.93898 4.54498 4.84798
513 0.236873 3.38514e-06 1 5.15098 4.54498 4.84798
531 0.236873 0 1 5.75697 5.15098 4.84798
604 0.236873 1.12838e-06 1 5.45398 3.93898 5.15098
617 0.236873 1.12838e-06 1 4.84798 4.54498 5.15098
626 0.236873 1.12838e-06 1 3.33299 4.84798 5.15098
633 0.236873 0 1 4.84798 5.15098 5.15098
661 0.236873 0 1 4.54498 6.05997 5.15098
756 0.236873 0 1 5.75697 4.54498 5.45398
811 0.236873 0 1 4.24198 5.45398 5.45398
816 0.236873 0 1 5.15098 5.75697 5.45398
794 0.236873 0 1 6.05997 5.15098 5.75697
846 0.236873 0 1 4.84798 6.36297 5.75697
ITEM: TIMESTEP
2271
ITEM: NUMBER OF ATOMS
25
ITEM: BOX BOUNDS pp pp pp
0.0000000000000000e+00 1.0000000000000000e+01
0.0000000000000000e+00 1.0000000000000000e+01
0.0000000000000000e+00 1.0000000000000000e+01
ITEM: ATOMS c_tempID c_tempRAD c_tempPE type x y z
144 0.236873 1.12838e-06 1 5.15098 3.93898 3.63598
169 0.236873 2.25676e-06 1 5.15098 4.24198 3.93898
197 0.236873 1.12838e-06 1 5.15098 4.84798 3.93898
310 0.236873 0 1 4.24198 3.63598 4.24198
345 0.236873 3.38514e-06 1 5.15098 4.54498 4.24198
399 0.236873 1.12838e-06 1 3.93898 5.75697 4.24198
347 0.236873 3.38514e-06 1 4.84798 4.54498 4.54498
373 0.236873 1.12838e-06 1 4.54498 4.84798 4.54498
405 0.236873 2.25676e-06 1 4.24198 5.75697 4.54498
434 0.236873 1.12838e-06 1 4.54498 6.05997 4.54498
514 0.236873 2.25676e-06 1 5.45398 4.24198 4.84798
507 0.236873 1.12838e-06 1 3.33299 4.54498 4.84798
509 0.236873 0 1 3.93898 4.54498 4.84798
513 0.236873 3.38514e-06 1 5.15098 4.54498 4.84798
531 0.236873 0 1 5.75697 5.15098 4.84798
604 0.236873 1.12838e-06 1 5.45398 3.93898 5.15098
617 0.236873 1.12838e-06 1 4.84798 4.54498 5.15098
626 0.236873 1.12838e-06 1 3.33299 4.84798 5.15098
633 0.236873 0 1 4.84798 5.15098 5.15098
661 0.236873 0 1 4.54498 6.05997 5.15098
756 0.236873 0 1 5.75697 4.54498 5.45398
811 0.236873 0 1 4.24198 5.45398 5.45398
816 0.236873 0 1 5.15098 5.75697 5.45398
794 0.236873 0 1 6.05997 5.15098 5.75697
846 0.236873 0 1 4.84798 6.36297 5.75697
