units nano 
atom_style sphere 
atom_modify map yes # NEEDED FOR NUCLEATE FIXES!! 
boundary p p p 
region simbox block 0 20 0 20 0 20 units box 
create_box 1 simbox #make space for enough types when creating box 
Created orthogonal box = (0 0 0) to (20 20 20)
  1 by 1 by 2 MPI processor grid
variable DCH equal 0.473745541 
variable eqDCH equal $(v_DCH)*(0.74^(1./3.)) 
variable eqDCH equal 0.47374554099999999224*(0.74^(1./3.)) 
variable scale equal sqrt(2)*v_eqDCH 
lattice fcc $(v_scale) 
lattice fcc 0.60599732400958894463 
Lattice spacing in x,y,z = 0.60599732 0.60599732 0.60599732
region nuc1 sphere 10 10 10 5 units box 
create_atoms 1 region nuc1 
Created 9400 atoms
  using lattice units in orthogonal box = (0 0 0) to (20 20 20)
  create_atoms CPU = 0.003 seconds
group nuc1 region nuc1 
9400 atoms in group nuc1
set type 1 diameter $(v_DCH) 
set type 1 diameter 0.47374554099999999224 
Setting atom values ...
  9400 settings made for diameter
pair_style table linear 4000 
pair_coeff 1 1 ./table.potential_CH-CH.txt Spring_Ca(OH)2-Ca(OH)2 
WARNING: 1693 of 4000 force values in table Spring_Ca(OH)2-Ca(OH)2 are inconsistent with -dE/dr.
WARNING:  Should only be flagged at inflection points (src/pair_table.cpp:465)
WARNING: 3999 of 4000 distance values in table 1e-06 with relative error
WARNING:  over Spring_Ca(OH)2-Ca(OH)2 to re-computed values (src/pair_table.cpp:473)
pair_write 1 1 4000 r 1.00E-030 0.62 tableOUT.txt Spring_CSH-CH 
Appending to table file tableOUT.txt with DATE: 2022-11-01
Generated 0 of 0 mixed pair_coeff terms from geometric mixing rule
Neighbor list info ...
  update every 1 steps, delay 10 steps, check yes
  max neighbors/atom: 2000, page size: 100000
  master list distance cutoff = 0.61421
  ghost atom cutoff = 0.61421
  binsize = 0.307105, bins = 66 66 66
  1 neighbor lists, perpetual/occasional/extra = 1 0 0
  (1) pair table, perpetual
      attributes: half, newton on
      pair build: half/bin/atomonly/newton
      stencil: half/bin/3d
      bin: standard
variable skin equal $(v_eqDCH)/10. 
variable skin equal 0.42850481718808197673/10. 
neighbor $(v_skin) bin 
neighbor 0.042850481718808203224 bin 
neigh_modify delay 0 
variable Bvol equal vol
compute rad all property/atom radius
variable sva atom 4./3.*PI*c_rad*c_rad*c_rad
compute solidVc all reduce sum v_sva
variable solidV equal c_solidVc
variable packf equal v_solidV/vol
thermo_style custom step atoms c_solidVc v_solidV v_packf
run 0
WARNING: No fixes with time integration, atoms won't move (src/verlet.cpp:60)
Generated 0 of 0 mixed pair_coeff terms from geometric mixing rule
Per MPI rank memory allocation (min/avg/max) = 5.475 | 5.476 | 5.476 Mbytes
   Step        Atoms      c_solidVc       v_solidV       v_packf    
         0        9400   523.31343      523.31343      0.065414179  
Loop time of 1.773e-06 on 2 procs for 0 steps with 9400 atoms

197.4% CPU use with 2 MPI tasks x no OpenMP threads

MPI task timing breakdown:
Section |  min time  |  avg time  |  max time  |%varavg| %total
---------------------------------------------------------------
Pair    | 0          | 0          | 0          |   0.0 |  0.00
Neigh   | 0          | 0          | 0          |   0.0 |  0.00
Comm    | 0          | 0          | 0          |   0.0 |  0.00
Output  | 0          | 0          | 0          |   0.0 |  0.00
Modify  | 0          | 0          | 0          |   0.0 |  0.00
Other   |            | 1.773e-06  |            |       |100.00

Nlocal:           4700 ave        4916 max        4484 min
Histogram: 1 0 0 0 0 0 0 0 0 1
Nghost:            637 ave         853 max         421 min
Histogram: 1 0 0 0 0 0 0 0 0 1
Neighs:          26388 ave       28436 max       24340 min
Histogram: 1 0 0 0 0 0 0 0 0 1

Total # of neighbors = 52776
Ave neighs/atom = 5.6144681
Neighbor list builds = 0
Dangerous builds = 0
