ITEM: TIMESTEP
0
ITEM: NUMBER OF ATOMS
12600
ITEM: BOX BOUNDS xy xz yz p pp ff
0 3003 1
0 3000 2
-200 6000 0
ITEM: ATOMS id type radius x y z 
617 1 50 106.928 134.064 -185.813 
822 1 50 49.0913 77.6594 -185.209 
2360 1 50 31.4242 146.141 -53.8191 
2500 1 50 128.347 122.201 -77.6729 
2925 1 50 57.6548 4.91881 -88.6395 
3325 1 50 24.8155 73.8076 -101.002 
3615 1 50 15.5308 26.8676 -95.7439 
3671 1 50 127.983 11.646 -151.084 
6188 1 50 128.884 150.951 -64.232