ITEM: TIMESTEP
5421
ITEM: NUMBER OF ATOMS
206
ITEM: BOX BOUNDS ff pp ff
0.0 6.0599732401
0.0 6.0599732401
0.0 6.0599732401
ITEM: ATOMS id type x y z radius
806 1 2.72699 3.33299 1.81799 0.236873
841 1 2.42399 3.63598 1.81799 0.236873
845 1 3.02999 3.63598 1.81799 0.236873
842 1 2.72699 3.93898 1.81799 0.236873
846 1 3.33299 3.93898 1.81799 0.236873
881 1 3.02999 4.24198 1.81799 0.236873
776 1 3.02999 2.72699 2.12099 0.236873
807 1 2.72699 3.02999 2.12099 0.236873
811 1 3.33299 3.02999 2.12099 0.236873
808 1 2.42399 3.33299 2.12099 0.236873
812 1 3.02999 3.33299 2.12099 0.236873
816 1 3.63598 3.33299 2.12099 0.236873
839 1 2.12099 3.63598 2.12099 0.236873
843 1 2.72699 3.63598 2.12099 0.236873
847 1 3.33299 3.63598 2.12099 0.236873
851 1 3.93898 3.63598 2.12099 0.236873
844 1 2.42399 3.93898 2.12099 0.236873
848 1 3.02999 3.93898 2.12099 0.236873
852 1 3.63598 3.93898 2.12099 0.236873
879 1 2.72699 4.24198 2.12099 0.236873
883 1 3.33299 4.24198 2.12099 0.236873
1097 1 3.02999 2.42399 2.42399 0.236873
1094 1 2.72699 2.72699 2.42399 0.236873
1098 1 3.33299 2.72699 2.42399 0.236873
1125 1 1.81799 3.02999 2.42399 0.236873
1129 1 2.42399 3.02999 2.42399 0.236873
1133 1 3.02999 3.02999 2.42399 0.236873
1137 1 3.63598 3.02999 2.42399 0.236873
1126 1 2.12099 3.33299 2.42399 0.236873
1130 1 2.72699 3.33299 2.42399 0.236873
1134 1 3.33299 3.33299 2.42399 0.236873
1138 1 3.93898 3.33299 2.42399 0.236873
1161 1 1.81799 3.63598 2.42399 0.236873
1165 1 2.42399 3.63598 2.42399 0.236873
1169 1 3.02999 3.63598 2.42399 0.236873
1173 1 3.63598 3.63598 2.42399 0.236873
1177 1 4.24198 3.63598 2.42399 0.236873
1162 1 2.12099 3.93898 2.42399 0.236873
1166 1 2.72699 3.93898 2.42399 0.236873
1170 1 3.33299 3.93898 2.42399 0.236873
1174 1 3.93898 3.93898 2.42399 0.236873
1201 1 2.42399 4.24198 2.42399 0.236873
1205 1 3.02999 4.24198 2.42399 0.236873
1209 1 3.63598 4.24198 2.42399 0.236873
1095 1 2.72699 2.42399 2.72699 0.236873
1099 1 3.33299 2.42399 2.72699 0.236873
1096 1 2.42399 2.72699 2.72699 0.236873
1100 1 3.02999 2.72699 2.72699 0.236873
1104 1 3.63598 2.72699 2.72699 0.236873
1127 1 2.12099 3.02999 2.72699 0.236873
1131 1 2.72699 3.02999 2.72699 0.236873
1135 1 3.33299 3.02999 2.72699 0.236873
1139 1 3.93898 3.02999 2.72699 0.236873
1128 1 1.81799 3.33299 2.72699 0.236873
1132 1 2.42399 3.33299 2.72699 0.236873
1136 1 3.02999 3.33299 2.72699 0.236873
1140 1 3.63598 3.33299 2.72699 0.236873
1144 1 4.24198 3.33299 2.72699 0.236873
1167 1 2.72699 3.63598 2.72699 0.236873
1171 1 3.33299 3.63598 2.72699 0.236873
1175 1 3.93898 3.63598 2.72699 0.236873
1168 1 2.42399 3.93898 2.72699 0.236873
1172 1 3.02999 3.93898 2.72699 0.236873
1176 1 3.63598 3.93898 2.72699 0.236873
1199 1 2.12099 4.24198 2.72699 0.236873
1203 1 2.72699 4.24198 2.72699 0.236873
1207 1 3.33299 4.24198 2.72699 0.236873
1211 1 3.93898 4.24198 2.72699 0.236873
1212 1 3.63598 4.54498 2.72699 0.236873
1417 1 2.42399 2.42399 3.02999 0.236873
1421 1 3.02999 2.42399 3.02999 0.236873
1425 1 3.63598 2.42399 3.02999 0.236873
1414 1 2.12099 2.72699 3.02999 0.236873
1418 1 2.72699 2.72699 3.02999 0.236873
1422 1 3.33299 2.72699 3.02999 0.236873
1449 1 1.81799 3.02999 3.02999 0.236873
1453 1 2.42399 3.02999 3.02999 0.236873
1457 1 3.02999 3.02999 3.02999 0.236873
1461 1 3.63598 3.02999 3.02999 0.236873
1450 1 2.12099 3.33299 3.02999 0.236873
1454 1 2.72699 3.33299 3.02999 0.236873
1458 1 3.33299 3.33299 3.02999 0.236873
1462 1 3.93898 3.33299 3.02999 0.236873
1489 1 2.42399 3.63598 3.02999 0.236873
1493 1 3.02999 3.63598 3.02999 0.236873
1497 1 3.63598 3.63598 3.02999 0.236873
1486 1 2.12099 3.93898 3.02999 0.236873
1490 1 2.72699 3.93898 3.02999 0.236873
1494 1 3.33299 3.93898 3.02999 0.236873
1498 1 3.93898 3.93898 3.02999 0.236873
1525 1 2.42399 4.24198 3.02999 0.236873
1529 1 3.02999 4.24198 3.02999 0.236873
1533 1 3.63598 4.24198 3.02999 0.236873
1526 1 2.72699 4.54498 3.02999 0.236873
1530 1 3.33299 4.54498 3.02999 0.236873
1534 1 3.93898 4.54498 3.02999 0.236873
1383 1 2.72699 1.81799 3.33299 0.236873
1384 1 2.42399 2.12099 3.33299 0.236873
1388 1 3.02999 2.12099 3.33299 0.236873
1419 1 2.72699 2.42399 3.33299 0.236873
1423 1 3.33299 2.42399 3.33299 0.236873
1420 1 2.42399 2.72699 3.33299 0.236873
1424 1 3.02999 2.72699 3.33299 0.236873
1428 1 3.63598 2.72699 3.33299 0.236873
1451 1 2.12099 3.02999 3.33299 0.236873
1455 1 2.72699 3.02999 3.33299 0.236873
1459 1 3.33299 3.02999 3.33299 0.236873
1463 1 3.93898 3.02999 3.33299 0.236873
1452 1 1.81799 3.33299 3.33299 0.236873
1456 1 2.42399 3.33299 3.33299 0.236873
1460 1 3.02999 3.33299 3.33299 0.236873
1464 1 3.63598 3.33299 3.33299 0.236873
1468 1 4.24198 3.33299 3.33299 0.236873
1487 1 2.12099 3.63598 3.33299 0.236873
1491 1 2.72699 3.63598 3.33299 0.236873
1495 1 3.33299 3.63598 3.33299 0.236873
1499 1 3.93898 3.63598 3.33299 0.236873
1492 1 2.42399 3.93898 3.33299 0.236873
1496 1 3.02999 3.93898 3.33299 0.236873
1500 1 3.63598 3.93898 3.33299 0.236873
1523 1 2.12099 4.24198 3.33299 0.236873
1527 1 2.72699 4.24198 3.33299 0.236873
1531 1 3.33299 4.24198 3.33299 0.236873
1535 1 3.93898 4.24198 3.33299 0.236873
1532 1 3.02999 4.54498 3.33299 0.236873
1536 1 3.63598 4.54498 3.33299 0.236873
1563 1 2.72699 4.84798 3.33299 0.236873
1706 1 2.72699 2.12099 3.63598 0.236873
1710 1 3.33299 2.12099 3.63598 0.236873
1741 1 2.42399 2.42399 3.63598 0.236873
1745 1 3.02999 2.42399 3.63598 0.236873
1749 1 3.63598 2.42399 3.63598 0.236873
1742 1 2.72699 2.72699 3.63598 0.236873
1746 1 3.33299 2.72699 3.63598 0.236873
1750 1 3.93898 2.72699 3.63598 0.236873
1777 1 2.42399 3.02999 3.63598 0.236873
1781 1 3.02999 3.02999 3.63598 0.236873
1785 1 3.63598 3.02999 3.63598 0.236873
1789 1 4.24198 3.02999 3.63598 0.236873
1774 1 2.12099 3.33299 3.63598 0.236873
1778 1 2.72699 3.33299 3.63598 0.236873
1782 1 3.33299 3.33299 3.63598 0.236873
1786 1 3.93898 3.33299 3.63598 0.236873
1809 1 1.81799 3.63598 3.63598 0.236873
1813 1 2.42399 3.63598 3.63598 0.236873
1817 1 3.02999 3.63598 3.63598 0.236873
1821 1 3.63598 3.63598 3.63598 0.236873
1825 1 4.24198 3.63598 3.63598 0.236873
1810 1 2.12099 3.93898 3.63598 0.236873
1814 1 2.72699 3.93898 3.63598 0.236873
1818 1 3.33299 3.93898 3.63598 0.236873
1822 1 3.93898 3.93898 3.63598 0.236873
1849 1 2.42399 4.24198 3.63598 0.236873
1853 1 3.02999 4.24198 3.63598 0.236873
1857 1 3.63598 4.24198 3.63598 0.236873
1850 1 2.72699 4.54498 3.63598 0.236873
1854 1 3.33299 4.54498 3.63598 0.236873
1889 1 3.02999 4.84798 3.63598 0.236873
1712 1 3.02999 2.12099 3.93898 0.236873
1716 1 3.63598 2.12099 3.93898 0.236873
1743 1 2.72699 2.42399 3.93898 0.236873
1747 1 3.33299 2.42399 3.93898 0.236873
1751 1 3.93898 2.42399 3.93898 0.236873
1744 1 2.42399 2.72699 3.93898 0.236873
1748 1 3.02999 2.72699 3.93898 0.236873
1752 1 3.63598 2.72699 3.93898 0.236873
1779 1 2.72699 3.02999 3.93898 0.236873
1783 1 3.33299 3.02999 3.93898 0.236873
1787 1 3.93898 3.02999 3.93898 0.236873
1780 1 2.42399 3.33299 3.93898 0.236873
1784 1 3.02999 3.33299 3.93898 0.236873
1788 1 3.63598 3.33299 3.93898 0.236873
1811 1 2.12099 3.63598 3.93898 0.236873
1815 1 2.72699 3.63598 3.93898 0.236873
1823 1 3.93898 3.63598 3.93898 0.236873
1816 1 2.42399 3.93898 3.93898 0.236873
1820 1 3.02999 3.93898 3.93898 0.236873
1824 1 3.63598 3.93898 3.93898 0.236873
1847 1 2.12099 4.24198 3.93898 0.236873
1851 1 2.72699 4.24198 3.93898 0.236873
1855 1 3.33299 4.24198 3.93898 0.236873
1856 1 3.02999 4.54498 3.93898 0.236873
2069 1 3.02999 2.42399 4.24198 0.236873
2073 1 3.63598 2.42399 4.24198 0.236873
2066 1 2.72699 2.72699 4.24198 0.236873
2070 1 3.33299 2.72699 4.24198 0.236873
2074 1 3.93898 2.72699 4.24198 0.236873
2105 1 3.02999 3.02999 4.24198 0.236873
2109 1 3.63598 3.02999 4.24198 0.236873
2102 1 2.72699 3.33299 4.24198 0.236873
2106 1 3.33299 3.33299 4.24198 0.236873
2110 1 3.93898 3.33299 4.24198 0.236873
2137 1 2.42399 3.63598 4.24198 0.236873
2141 1 3.02999 3.63598 4.24198 0.236873
2145 1 3.63598 3.63598 4.24198 0.236873
2134 1 2.12099 3.93898 4.24198 0.236873
2138 1 2.72699 3.93898 4.24198 0.236873
2142 1 3.33299 3.93898 4.24198 0.236873
2173 1 2.42399 4.24198 4.24198 0.236873
2177 1 3.02999 4.24198 4.24198 0.236873
2076 1 3.63598 2.72699 4.54498 0.236873
2107 1 3.33299 3.02999 4.54498 0.236873
2112 1 3.63598 3.33299 4.54498 0.236873
2139 1 2.72699 3.63598 4.54498 0.236873
2143 1 3.33299 3.63598 4.54498 0.236873
2144 1 3.02999 3.93898 4.54498 0.236873
