ITEM: TIMESTEP
0
ITEM: NUMBER OF ATOMS
2916
ITEM: BOX BOUNDS pp pp pp
0.0000000000000000e+00 6.0599732400958901e+00
0.0000000000000000e+00 6.0599732400958901e+00
0.0000000000000000e+00 6.0599732400958901e+00
ITEM: ATOMS id type x y z radius 
1 1 0.605997 0.605997 0.605997 0.236873 
5 1 1.21199 0.605997 0.605997 0.236873 
9 1 1.81799 0.605997 0.605997 0.236873 
13 1 2.42399 0.605997 0.605997 0.236873 
17 1 3.02999 0.605997 0.605997 0.236873 
21 1 3.63598 0.605997 0.605997 0.236873 
25 1 4.24198 0.605997 0.605997 0.236873 
29 1 4.84798 0.605997 0.605997 0.236873 
33 1 5.45398 0.605997 0.605997 0.236873 
2 1 0.908996 0.908996 0.605997 0.236873 
6 1 1.51499 0.908996 0.605997 0.236873 
10 1 2.12099 0.908996 0.605997 0.236873 
14 1 2.72699 0.908996 0.605997 0.236873 
18 1 3.33299 0.908996 0.605997 0.236873 
22 1 3.93898 0.908996 0.605997 0.236873 
26 1 4.54498 0.908996 0.605997 0.236873 
30 1 5.15098 0.908996 0.605997 0.236873 
34 1 5.75697 0.908996 0.605997 0.236873 
37 1 0.605997 1.21199 0.605997 0.236873 
41 1 1.21199 1.21199 0.605997 0.236873 
45 1 1.81799 1.21199 0.605997 0.236873 
49 1 2.42399 1.21199 0.605997 0.236873 
53 1 3.02999 1.21199 0.605997 0.236873 
57 1 3.63598 1.21199 0.605997 0.236873 
61 1 4.24198 1.21199 0.605997 0.236873 
65 1 4.84798 1.21199 0.605997 0.236873 
69 1 5.45398 1.21199 0.605997 0.236873 
38 1 0.908996 1.51499 0.605997 0.236873 
42 1 1.51499 1.51499 0.605997 0.236873 
46 1 2.12099 1.51499 0.605997 0.236873 
50 1 2.72699 1.51499 0.605997 0.236873 
54 1 3.33299 1.51499 0.605997 0.236873 
58 1 3.93898 1.51499 0.605997 0.236873 
62 1 4.54498 1.51499 0.605997 0.236873 
66 1 5.15098 1.51499 0.605997 0.236873 
70 1 5.75697 1.51499 0.605997 0.236873 
73 1 0.605997 1.81799 0.605997 0.236873 
77 1 1.21199 1.81799 0.605997 0.236873 
81 1 1.81799 1.81799 0.605997 0.236873 
85 1 2.42399 1.81799 0.605997 0.236873 
89 1 3.02999 1.81799 0.605997 0.236873 
93 1 3.63598 1.81799 0.605997 0.236873 
97 1 4.24198 1.81799 0.605997 0.236873 
101 1 4.84798 1.81799 0.605997 0.236873 
105 1 5.45398 1.81799 0.605997 0.236873 
74 1 0.908996 2.12099 0.605997 0.236873 
78 1 1.51499 2.12099 0.605997 0.236873 
82 1 2.12099 2.12099 0.605997 0.236873 
86 1 2.72699 2.12099 0.605997 0.236873 
90 1 3.33299 2.12099 0.605997 0.236873 
94 1 3.93898 2.12099 0.605997 0.236873 
98 1 4.54498 2.12099 0.605997 0.236873 
102 1 5.15098 2.12099 0.605997 0.236873 
106 1 5.75697 2.12099 0.605997 0.236873 
109 1 0.605997 2.42399 0.605997 0.236873 
113 1 1.21199 2.42399 0.605997 0.236873 
117 1 1.81799 2.42399 0.605997 0.236873 
121 1 2.42399 2.42399 0.605997 0.236873 
125 1 3.02999 2.42399 0.605997 0.236873 
129 1 3.63598 2.42399 0.605997 0.236873 
133 1 4.24198 2.42399 0.605997 0.236873 
137 1 4.84798 2.42399 0.605997 0.236873 
141 1 5.45398 2.42399 0.605997 0.236873 
110 1 0.908996 2.72699 0.605997 0.236873 
114 1 1.51499 2.72699 0.605997 0.236873 
118 1 2.12099 2.72699 0.605997 0.236873 
122 1 2.72699 2.72699 0.605997 0.236873 
126 1 3.33299 2.72699 0.605997 0.236873 
130 1 3.93898 2.72699 0.605997 0.236873 
134 1 4.54498 2.72699 0.605997 0.236873 
138 1 5.15098 2.72699 0.605997 0.236873 
142 1 5.75697 2.72699 0.605997 0.236873 
145 1 0.605997 3.02999 0.605997 0.236873 
149 1 1.21199 3.02999 0.605997 0.236873 
153 1 1.81799 3.02999 0.605997 0.236873 
157 1 2.42399 3.02999 0.605997 0.236873 
161 1 3.02999 3.02999 0.605997 0.236873 
165 1 3.63598 3.02999 0.605997 0.236873 
169 1 4.24198 3.02999 0.605997 0.236873 
173 1 4.84798 3.02999 0.605997 0.236873 
177 1 5.45398 3.02999 0.605997 0.236873 
146 1 0.908996 3.33299 0.605997 0.236873 
150 1 1.51499 3.33299 0.605997 0.236873 
154 1 2.12099 3.33299 0.605997 0.236873 
158 1 2.72699 3.33299 0.605997 0.236873 
162 1 3.33299 3.33299 0.605997 0.236873 
166 1 3.93898 3.33299 0.605997 0.236873 
170 1 4.54498 3.33299 0.605997 0.236873 
174 1 5.15098 3.33299 0.605997 0.236873 
178 1 5.75697 3.33299 0.605997 0.236873 
181 1 0.605997 3.63598 0.605997 0.236873 
185 1 1.21199 3.63598 0.605997 0.236873 
189 1 1.81799 3.63598 0.605997 0.236873 
193 1 2.42399 3.63598 0.605997 0.236873 
197 1 3.02999 3.63598 0.605997 0.236873 
201 1 3.63598 3.63598 0.605997 0.236873 
205 1 4.24198 3.63598 0.605997 0.236873 
209 1 4.84798 3.63598 0.605997 0.236873 
213 1 5.45398 3.63598 0.605997 0.236873 
182 1 0.908996 3.93898 0.605997 0.236873 
186 1 1.51499 3.93898 0.605997 0.236873 
190 1 2.12099 3.93898 0.605997 0.236873 
194 1 2.72699 3.93898 0.605997 0.236873 
198 1 3.33299 3.93898 0.605997 0.236873 
202 1 3.93898 3.93898 0.605997 0.236873 
206 1 4.54498 3.93898 0.605997 0.236873 
210 1 5.15098 3.93898 0.605997 0.236873 
214 1 5.75697 3.93898 0.605997 0.236873 
217 1 0.605997 4.24198 0.605997 0.236873 
221 1 1.21199 4.24198 0.605997 0.236873 
225 1 1.81799 4.24198 0.605997 0.236873 
229 1 2.42399 4.24198 0.605997 0.236873 
233 1 3.02999 4.24198 0.605997 0.236873 
237 1 3.63598 4.24198 0.605997 0.236873 
241 1 4.24198 4.24198 0.605997 0.236873 
245 1 4.84798 4.24198 0.605997 0.236873 
249 1 5.45398 4.24198 0.605997 0.236873 
218 1 0.908996 4.54498 0.605997 0.236873 
222 1 1.51499 4.54498 0.605997 0.236873 
226 1 2.12099 4.54498 0.605997 0.236873 
230 1 2.72699 4.54498 0.605997 0.236873 
234 1 3.33299 4.54498 0.605997 0.236873 
238 1 3.93898 4.54498 0.605997 0.236873 
242 1 4.54498 4.54498 0.605997 0.236873 
246 1 5.15098 4.54498 0.605997 0.236873 
250 1 5.75697 4.54498 0.605997 0.236873 
253 1 0.605997 4.84798 0.605997 0.236873 
257 1 1.21199 4.84798 0.605997 0.236873 
261 1 1.81799 4.84798 0.605997 0.236873 
265 1 2.42399 4.84798 0.605997 0.236873 
269 1 3.02999 4.84798 0.605997 0.236873 
273 1 3.63598 4.84798 0.605997 0.236873 
277 1 4.24198 4.84798 0.605997 0.236873 
281 1 4.84798 4.84798 0.605997 0.236873 
285 1 5.45398 4.84798 0.605997 0.236873 
254 1 0.908996 5.15098 0.605997 0.236873 
258 1 1.51499 5.15098 0.605997 0.236873 
262 1 2.12099 5.15098 0.605997 0.236873 
266 1 2.72699 5.15098 0.605997 0.236873 
270 1 3.33299 5.15098 0.605997 0.236873 
274 1 3.93898 5.15098 0.605997 0.236873 
278 1 4.54498 5.15098 0.605997 0.236873 
282 1 5.15098 5.15098 0.605997 0.236873 
286 1 5.75697 5.15098 0.605997 0.236873 
289 1 0.605997 5.45398 0.605997 0.236873 
293 1 1.21199 5.45398 0.605997 0.236873 
297 1 1.81799 5.45398 0.605997 0.236873 
301 1 2.42399 5.45398 0.605997 0.236873 
305 1 3.02999 5.45398 0.605997 0.236873 
309 1 3.63598 5.45398 0.605997 0.236873 
313 1 4.24198 5.45398 0.605997 0.236873 
317 1 4.84798 5.45398 0.605997 0.236873 
321 1 5.45398 5.45398 0.605997 0.236873 
290 1 0.908996 5.75697 0.605997 0.236873 
294 1 1.51499 5.75697 0.605997 0.236873 
298 1 2.12099 5.75697 0.605997 0.236873 
302 1 2.72699 5.75697 0.605997 0.236873 
306 1 3.33299 5.75697 0.605997 0.236873 
310 1 3.93898 5.75697 0.605997 0.236873 
314 1 4.54498 5.75697 0.605997 0.236873 
318 1 5.15098 5.75697 0.605997 0.236873 
322 1 5.75697 5.75697 0.605997 0.236873 
3 1 0.908996 0.605997 0.908996 0.236873 
7 1 1.51499 0.605997 0.908996 0.236873 
11 1 2.12099 0.605997 0.908996 0.236873 
15 1 2.72699 0.605997 0.908996 0.236873 
19 1 3.33299 0.605997 0.908996 0.236873 
23 1 3.93898 0.605997 0.908996 0.236873 
27 1 4.54498 0.605997 0.908996 0.236873 
31 1 5.15098 0.605997 0.908996 0.236873 
35 1 5.75697 0.605997 0.908996 0.236873 
4 1 0.605997 0.908996 0.908996 0.236873 
8 1 1.21199 0.908996 0.908996 0.236873 
12 1 1.81799 0.908996 0.908996 0.236873 
16 1 2.42399 0.908996 0.908996 0.236873 
20 1 3.02999 0.908996 0.908996 0.236873 
24 1 3.63598 0.908996 0.908996 0.236873 
28 1 4.24198 0.908996 0.908996 0.236873 
32 1 4.84798 0.908996 0.908996 0.236873 
36 1 5.45398 0.908996 0.908996 0.236873 
39 1 0.908996 1.21199 0.908996 0.236873 
43 1 1.51499 1.21199 0.908996 0.236873 
47 1 2.12099 1.21199 0.908996 0.236873 
51 1 2.72699 1.21199 0.908996 0.236873 
55 1 3.33299 1.21199 0.908996 0.236873 
59 1 3.93898 1.21199 0.908996 0.236873 
63 1 4.54498 1.21199 0.908996 0.236873 
67 1 5.15098 1.21199 0.908996 0.236873 
71 1 5.75697 1.21199 0.908996 0.236873 
40 1 0.605997 1.51499 0.908996 0.236873 
44 1 1.21199 1.51499 0.908996 0.236873 
48 1 1.81799 1.51499 0.908996 0.236873 
52 1 2.42399 1.51499 0.908996 0.236873 
56 1 3.02999 1.51499 0.908996 0.236873 
60 1 3.63598 1.51499 0.908996 0.236873 
64 1 4.24198 1.51499 0.908996 0.236873 
68 1 4.84798 1.51499 0.908996 0.236873 
72 1 5.45398 1.51499 0.908996 0.236873 
75 1 0.908996 1.81799 0.908996 0.236873 
79 1 1.51499 1.81799 0.908996 0.236873 
83 1 2.12099 1.81799 0.908996 0.236873 
87 1 2.72699 1.81799 0.908996 0.236873 
91 1 3.33299 1.81799 0.908996 0.236873 
95 1 3.93898 1.81799 0.908996 0.236873 
99 1 4.54498 1.81799 0.908996 0.236873 
103 1 5.15098 1.81799 0.908996 0.236873 
107 1 5.75697 1.81799 0.908996 0.236873 
76 1 0.605997 2.12099 0.908996 0.236873 
80 1 1.21199 2.12099 0.908996 0.236873 
84 1 1.81799 2.12099 0.908996 0.236873 
88 1 2.42399 2.12099 0.908996 0.236873 
92 1 3.02999 2.12099 0.908996 0.236873 
96 1 3.63598 2.12099 0.908996 0.236873 
100 1 4.24198 2.12099 0.908996 0.236873 
104 1 4.84798 2.12099 0.908996 0.236873 
108 1 5.45398 2.12099 0.908996 0.236873 
111 1 0.908996 2.42399 0.908996 0.236873 
115 1 1.51499 2.42399 0.908996 0.236873 
119 1 2.12099 2.42399 0.908996 0.236873 
123 1 2.72699 2.42399 0.908996 0.236873 
127 1 3.33299 2.42399 0.908996 0.236873 
131 1 3.93898 2.42399 0.908996 0.236873 
135 1 4.54498 2.42399 0.908996 0.236873 
139 1 5.15098 2.42399 0.908996 0.236873 
143 1 5.75697 2.42399 0.908996 0.236873 
112 1 0.605997 2.72699 0.908996 0.236873 
116 1 1.21199 2.72699 0.908996 0.236873 
120 1 1.81799 2.72699 0.908996 0.236873 
124 1 2.42399 2.72699 0.908996 0.236873 
128 1 3.02999 2.72699 0.908996 0.236873 
132 1 3.63598 2.72699 0.908996 0.236873 
136 1 4.24198 2.72699 0.908996 0.236873 
140 1 4.84798 2.72699 0.908996 0.236873 
144 1 5.45398 2.72699 0.908996 0.236873 
147 1 0.908996 3.02999 0.908996 0.236873 
151 1 1.51499 3.02999 0.908996 0.236873 
155 1 2.12099 3.02999 0.908996 0.236873 
159 1 2.72699 3.02999 0.908996 0.236873 
163 1 3.33299 3.02999 0.908996 0.236873 
167 1 3.93898 3.02999 0.908996 0.236873 
171 1 4.54498 3.02999 0.908996 0.236873 
175 1 5.15098 3.02999 0.908996 0.236873 
179 1 5.75697 3.02999 0.908996 0.236873 
148 1 0.605997 3.33299 0.908996 0.236873 
152 1 1.21199 3.33299 0.908996 0.236873 
156 1 1.81799 3.33299 0.908996 0.236873 
160 1 2.42399 3.33299 0.908996 0.236873 
164 1 3.02999 3.33299 0.908996 0.236873 
168 1 3.63598 3.33299 0.908996 0.236873 
172 1 4.24198 3.33299 0.908996 0.236873 
176 1 4.84798 3.33299 0.908996 0.236873 
180 1 5.45398 3.33299 0.908996 0.236873 
183 1 0.908996 3.63598 0.908996 0.236873 
187 1 1.51499 3.63598 0.908996 0.236873 
191 1 2.12099 3.63598 0.908996 0.236873 
195 1 2.72699 3.63598 0.908996 0.236873 
199 1 3.33299 3.63598 0.908996 0.236873 
203 1 3.93898 3.63598 0.908996 0.236873 
207 1 4.54498 3.63598 0.908996 0.236873 
211 1 5.15098 3.63598 0.908996 0.236873 
215 1 5.75697 3.63598 0.908996 0.236873 
184 1 0.605997 3.93898 0.908996 0.236873 
188 1 1.21199 3.93898 0.908996 0.236873 
192 1 1.81799 3.93898 0.908996 0.236873 
196 1 2.42399 3.93898 0.908996 0.236873 
200 1 3.02999 3.93898 0.908996 0.236873 
204 1 3.63598 3.93898 0.908996 0.236873 
208 1 4.24198 3.93898 0.908996 0.236873 
212 1 4.84798 3.93898 0.908996 0.236873 
216 1 5.45398 3.93898 0.908996 0.236873 
219 1 0.908996 4.24198 0.908996 0.236873 
223 1 1.51499 4.24198 0.908996 0.236873 
227 1 2.12099 4.24198 0.908996 0.236873 
231 1 2.72699 4.24198 0.908996 0.236873 
235 1 3.33299 4.24198 0.908996 0.236873 
239 1 3.93898 4.24198 0.908996 0.236873 
243 1 4.54498 4.24198 0.908996 0.236873 
247 1 5.15098 4.24198 0.908996 0.236873 
251 1 5.75697 4.24198 0.908996 0.236873 
220 1 0.605997 4.54498 0.908996 0.236873 
224 1 1.21199 4.54498 0.908996 0.236873 
228 1 1.81799 4.54498 0.908996 0.236873 
232 1 2.42399 4.54498 0.908996 0.236873 
236 1 3.02999 4.54498 0.908996 0.236873 
240 1 3.63598 4.54498 0.908996 0.236873 
244 1 4.24198 4.54498 0.908996 0.236873 
248 1 4.84798 4.54498 0.908996 0.236873 
252 1 5.45398 4.54498 0.908996 0.236873 
255 1 0.908996 4.84798 0.908996 0.236873 
259 1 1.51499 4.84798 0.908996 0.236873 
263 1 2.12099 4.84798 0.908996 0.236873 
267 1 2.72699 4.84798 0.908996 0.236873 
271 1 3.33299 4.84798 0.908996 0.236873 
275 1 3.93898 4.84798 0.908996 0.236873 
279 1 4.54498 4.84798 0.908996 0.236873 
283 1 5.15098 4.84798 0.908996 0.236873 
287 1 5.75697 4.84798 0.908996 0.236873 
256 1 0.605997 5.15098 0.908996 0.236873 
260 1 1.21199 5.15098 0.908996 0.236873 
264 1 1.81799 5.15098 0.908996 0.236873 
268 1 2.42399 5.15098 0.908996 0.236873 
272 1 3.02999 5.15098 0.908996 0.236873 
276 1 3.63598 5.15098 0.908996 0.236873 
280 1 4.24198 5.15098 0.908996 0.236873 
284 1 4.84798 5.15098 0.908996 0.236873 
288 1 5.45398 5.15098 0.908996 0.236873 
291 1 0.908996 5.45398 0.908996 0.236873 
295 1 1.51499 5.45398 0.908996 0.236873 
299 1 2.12099 5.45398 0.908996 0.236873 
303 1 2.72699 5.45398 0.908996 0.236873 
307 1 3.33299 5.45398 0.908996 0.236873 
311 1 3.93898 5.45398 0.908996 0.236873 
315 1 4.54498 5.45398 0.908996 0.236873 
319 1 5.15098 5.45398 0.908996 0.236873 
323 1 5.75697 5.45398 0.908996 0.236873 
292 1 0.605997 5.75697 0.908996 0.236873 
296 1 1.21199 5.75697 0.908996 0.236873 
300 1 1.81799 5.75697 0.908996 0.236873 
304 1 2.42399 5.75697 0.908996 0.236873 
308 1 3.02999 5.75697 0.908996 0.236873 
312 1 3.63598 5.75697 0.908996 0.236873 
316 1 4.24198 5.75697 0.908996 0.236873 
320 1 4.84798 5.75697 0.908996 0.236873 
324 1 5.45398 5.75697 0.908996 0.236873 
325 1 0.605997 0.605997 1.21199 0.236873 
329 1 1.21199 0.605997 1.21199 0.236873 
333 1 1.81799 0.605997 1.21199 0.236873 
337 1 2.42399 0.605997 1.21199 0.236873 
341 1 3.02999 0.605997 1.21199 0.236873 
345 1 3.63598 0.605997 1.21199 0.236873 
349 1 4.24198 0.605997 1.21199 0.236873 
353 1 4.84798 0.605997 1.21199 0.236873 
357 1 5.45398 0.605997 1.21199 0.236873 
326 1 0.908996 0.908996 1.21199 0.236873 
330 1 1.51499 0.908996 1.21199 0.236873 
334 1 2.12099 0.908996 1.21199 0.236873 
338 1 2.72699 0.908996 1.21199 0.236873 
342 1 3.33299 0.908996 1.21199 0.236873 
346 1 3.93898 0.908996 1.21199 0.236873 
350 1 4.54498 0.908996 1.21199 0.236873 
354 1 5.15098 0.908996 1.21199 0.236873 
358 1 5.75697 0.908996 1.21199 0.236873 
361 1 0.605997 1.21199 1.21199 0.236873 
365 1 1.21199 1.21199 1.21199 0.236873 
369 1 1.81799 1.21199 1.21199 0.236873 
373 1 2.42399 1.21199 1.21199 0.236873 
377 1 3.02999 1.21199 1.21199 0.236873 
381 1 3.63598 1.21199 1.21199 0.236873 
385 1 4.24198 1.21199 1.21199 0.236873 
389 1 4.84798 1.21199 1.21199 0.236873 
393 1 5.45398 1.21199 1.21199 0.236873 
362 1 0.908996 1.51499 1.21199 0.236873 
366 1 1.51499 1.51499 1.21199 0.236873 
370 1 2.12099 1.51499 1.21199 0.236873 
374 1 2.72699 1.51499 1.21199 0.236873 
378 1 3.33299 1.51499 1.21199 0.236873 
382 1 3.93898 1.51499 1.21199 0.236873 
386 1 4.54498 1.51499 1.21199 0.236873 
390 1 5.15098 1.51499 1.21199 0.236873 
394 1 5.75697 1.51499 1.21199 0.236873 
397 1 0.605997 1.81799 1.21199 0.236873 
401 1 1.21199 1.81799 1.21199 0.236873 
405 1 1.81799 1.81799 1.21199 0.236873 
409 1 2.42399 1.81799 1.21199 0.236873 
413 1 3.02999 1.81799 1.21199 0.236873 
417 1 3.63598 1.81799 1.21199 0.236873 
421 1 4.24198 1.81799 1.21199 0.236873 
425 1 4.84798 1.81799 1.21199 0.236873 
429 1 5.45398 1.81799 1.21199 0.236873 
398 1 0.908996 2.12099 1.21199 0.236873 
402 1 1.51499 2.12099 1.21199 0.236873 
406 1 2.12099 2.12099 1.21199 0.236873 
410 1 2.72699 2.12099 1.21199 0.236873 
414 1 3.33299 2.12099 1.21199 0.236873 
418 1 3.93898 2.12099 1.21199 0.236873 
422 1 4.54498 2.12099 1.21199 0.236873 
426 1 5.15098 2.12099 1.21199 0.236873 
430 1 5.75697 2.12099 1.21199 0.236873 
433 1 0.605997 2.42399 1.21199 0.236873 
437 1 1.21199 2.42399 1.21199 0.236873 
441 1 1.81799 2.42399 1.21199 0.236873 
445 1 2.42399 2.42399 1.21199 0.236873 
449 1 3.02999 2.42399 1.21199 0.236873 
453 1 3.63598 2.42399 1.21199 0.236873 
457 1 4.24198 2.42399 1.21199 0.236873 
461 1 4.84798 2.42399 1.21199 0.236873 
465 1 5.45398 2.42399 1.21199 0.236873 
434 1 0.908996 2.72699 1.21199 0.236873 
438 1 1.51499 2.72699 1.21199 0.236873 
442 1 2.12099 2.72699 1.21199 0.236873 
446 1 2.72699 2.72699 1.21199 0.236873 
450 1 3.33299 2.72699 1.21199 0.236873 
454 1 3.93898 2.72699 1.21199 0.236873 
458 1 4.54498 2.72699 1.21199 0.236873 
462 1 5.15098 2.72699 1.21199 0.236873 
466 1 5.75697 2.72699 1.21199 0.236873 
469 1 0.605997 3.02999 1.21199 0.236873 
473 1 1.21199 3.02999 1.21199 0.236873 
477 1 1.81799 3.02999 1.21199 0.236873 
481 1 2.42399 3.02999 1.21199 0.236873 
485 1 3.02999 3.02999 1.21199 0.236873 
489 1 3.63598 3.02999 1.21199 0.236873 
493 1 4.24198 3.02999 1.21199 0.236873 
497 1 4.84798 3.02999 1.21199 0.236873 
501 1 5.45398 3.02999 1.21199 0.236873 
470 1 0.908996 3.33299 1.21199 0.236873 
474 1 1.51499 3.33299 1.21199 0.236873 
478 1 2.12099 3.33299 1.21199 0.236873 
482 1 2.72699 3.33299 1.21199 0.236873 
486 1 3.33299 3.33299 1.21199 0.236873 
490 1 3.93898 3.33299 1.21199 0.236873 
494 1 4.54498 3.33299 1.21199 0.236873 
498 1 5.15098 3.33299 1.21199 0.236873 
502 1 5.75697 3.33299 1.21199 0.236873 
505 1 0.605997 3.63598 1.21199 0.236873 
509 1 1.21199 3.63598 1.21199 0.236873 
513 1 1.81799 3.63598 1.21199 0.236873 
517 1 2.42399 3.63598 1.21199 0.236873 
521 1 3.02999 3.63598 1.21199 0.236873 
525 1 3.63598 3.63598 1.21199 0.236873 
529 1 4.24198 3.63598 1.21199 0.236873 
533 1 4.84798 3.63598 1.21199 0.236873 
537 1 5.45398 3.63598 1.21199 0.236873 
506 1 0.908996 3.93898 1.21199 0.236873 
510 1 1.51499 3.93898 1.21199 0.236873 
514 1 2.12099 3.93898 1.21199 0.236873 
518 1 2.72699 3.93898 1.21199 0.236873 
522 1 3.33299 3.93898 1.21199 0.236873 
526 1 3.93898 3.93898 1.21199 0.236873 
530 1 4.54498 3.93898 1.21199 0.236873 
534 1 5.15098 3.93898 1.21199 0.236873 
538 1 5.75697 3.93898 1.21199 0.236873 
541 1 0.605997 4.24198 1.21199 0.236873 
545 1 1.21199 4.24198 1.21199 0.236873 
549 1 1.81799 4.24198 1.21199 0.236873 
553 1 2.42399 4.24198 1.21199 0.236873 
557 1 3.02999 4.24198 1.21199 0.236873 
561 1 3.63598 4.24198 1.21199 0.236873 
565 1 4.24198 4.24198 1.21199 0.236873 
569 1 4.84798 4.24198 1.21199 0.236873 
573 1 5.45398 4.24198 1.21199 0.236873 
542 1 0.908996 4.54498 1.21199 0.236873 
546 1 1.51499 4.54498 1.21199 0.236873 
550 1 2.12099 4.54498 1.21199 0.236873 
554 1 2.72699 4.54498 1.21199 0.236873 
558 1 3.33299 4.54498 1.21199 0.236873 
562 1 3.93898 4.54498 1.21199 0.236873 
566 1 4.54498 4.54498 1.21199 0.236873 
570 1 5.15098 4.54498 1.21199 0.236873 
574 1 5.75697 4.54498 1.21199 0.236873 
577 1 0.605997 4.84798 1.21199 0.236873 
581 1 1.21199 4.84798 1.21199 0.236873 
585 1 1.81799 4.84798 1.21199 0.236873 
589 1 2.42399 4.84798 1.21199 0.236873 
593 1 3.02999 4.84798 1.21199 0.236873 
597 1 3.63598 4.84798 1.21199 0.236873 
601 1 4.24198 4.84798 1.21199 0.236873 
605 1 4.84798 4.84798 1.21199 0.236873 
609 1 5.45398 4.84798 1.21199 0.236873 
578 1 0.908996 5.15098 1.21199 0.236873 
582 1 1.51499 5.15098 1.21199 0.236873 
586 1 2.12099 5.15098 1.21199 0.236873 
590 1 2.72699 5.15098 1.21199 0.236873 
594 1 3.33299 5.15098 1.21199 0.236873 
598 1 3.93898 5.15098 1.21199 0.236873 
602 1 4.54498 5.15098 1.21199 0.236873 
606 1 5.15098 5.15098 1.21199 0.236873 
610 1 5.75697 5.15098 1.21199 0.236873 
613 1 0.605997 5.45398 1.21199 0.236873 
617 1 1.21199 5.45398 1.21199 0.236873 
621 1 1.81799 5.45398 1.21199 0.236873 
625 1 2.42399 5.45398 1.21199 0.236873 
629 1 3.02999 5.45398 1.21199 0.236873 
633 1 3.63598 5.45398 1.21199 0.236873 
637 1 4.24198 5.45398 1.21199 0.236873 
641 1 4.84798 5.45398 1.21199 0.236873 
645 1 5.45398 5.45398 1.21199 0.236873 
614 1 0.908996 5.75697 1.21199 0.236873 
618 1 1.51499 5.75697 1.21199 0.236873 
622 1 2.12099 5.75697 1.21199 0.236873 
626 1 2.72699 5.75697 1.21199 0.236873 
630 1 3.33299 5.75697 1.21199 0.236873 
634 1 3.93898 5.75697 1.21199 0.236873 
638 1 4.54498 5.75697 1.21199 0.236873 
642 1 5.15098 5.75697 1.21199 0.236873 
646 1 5.75697 5.75697 1.21199 0.236873 
327 1 0.908996 0.605997 1.51499 0.236873 
331 1 1.51499 0.605997 1.51499 0.236873 
335 1 2.12099 0.605997 1.51499 0.236873 
339 1 2.72699 0.605997 1.51499 0.236873 
343 1 3.33299 0.605997 1.51499 0.236873 
347 1 3.93898 0.605997 1.51499 0.236873 
351 1 4.54498 0.605997 1.51499 0.236873 
355 1 5.15098 0.605997 1.51499 0.236873 
359 1 5.75697 0.605997 1.51499 0.236873 
328 1 0.605997 0.908996 1.51499 0.236873 
332 1 1.21199 0.908996 1.51499 0.236873 
336 1 1.81799 0.908996 1.51499 0.236873 
340 1 2.42399 0.908996 1.51499 0.236873 
344 1 3.02999 0.908996 1.51499 0.236873 
348 1 3.63598 0.908996 1.51499 0.236873 
352 1 4.24198 0.908996 1.51499 0.236873 
356 1 4.84798 0.908996 1.51499 0.236873 
360 1 5.45398 0.908996 1.51499 0.236873 
363 1 0.908996 1.21199 1.51499 0.236873 
367 1 1.51499 1.21199 1.51499 0.236873 
371 1 2.12099 1.21199 1.51499 0.236873 
375 1 2.72699 1.21199 1.51499 0.236873 
379 1 3.33299 1.21199 1.51499 0.236873 
383 1 3.93898 1.21199 1.51499 0.236873 
387 1 4.54498 1.21199 1.51499 0.236873 
391 1 5.15098 1.21199 1.51499 0.236873 
395 1 5.75697 1.21199 1.51499 0.236873 
364 1 0.605997 1.51499 1.51499 0.236873 
368 1 1.21199 1.51499 1.51499 0.236873 
372 1 1.81799 1.51499 1.51499 0.236873 
376 1 2.42399 1.51499 1.51499 0.236873 
380 1 3.02999 1.51499 1.51499 0.236873 
384 1 3.63598 1.51499 1.51499 0.236873 
388 1 4.24198 1.51499 1.51499 0.236873 
392 1 4.84798 1.51499 1.51499 0.236873 
396 1 5.45398 1.51499 1.51499 0.236873 
399 1 0.908996 1.81799 1.51499 0.236873 
403 1 1.51499 1.81799 1.51499 0.236873 
407 1 2.12099 1.81799 1.51499 0.236873 
411 1 2.72699 1.81799 1.51499 0.236873 
415 1 3.33299 1.81799 1.51499 0.236873 
419 1 3.93898 1.81799 1.51499 0.236873 
423 1 4.54498 1.81799 1.51499 0.236873 
427 1 5.15098 1.81799 1.51499 0.236873 
431 1 5.75697 1.81799 1.51499 0.236873 
400 1 0.605997 2.12099 1.51499 0.236873 
404 1 1.21199 2.12099 1.51499 0.236873 
408 1 1.81799 2.12099 1.51499 0.236873 
412 1 2.42399 2.12099 1.51499 0.236873 
416 1 3.02999 2.12099 1.51499 0.236873 
420 1 3.63598 2.12099 1.51499 0.236873 
424 1 4.24198 2.12099 1.51499 0.236873 
428 1 4.84798 2.12099 1.51499 0.236873 
432 1 5.45398 2.12099 1.51499 0.236873 
435 1 0.908996 2.42399 1.51499 0.236873 
439 1 1.51499 2.42399 1.51499 0.236873 
443 1 2.12099 2.42399 1.51499 0.236873 
447 1 2.72699 2.42399 1.51499 0.236873 
451 1 3.33299 2.42399 1.51499 0.236873 
455 1 3.93898 2.42399 1.51499 0.236873 
459 1 4.54498 2.42399 1.51499 0.236873 
463 1 5.15098 2.42399 1.51499 0.236873 
467 1 5.75697 2.42399 1.51499 0.236873 
436 1 0.605997 2.72699 1.51499 0.236873 
440 1 1.21199 2.72699 1.51499 0.236873 
444 1 1.81799 2.72699 1.51499 0.236873 
448 1 2.42399 2.72699 1.51499 0.236873 
452 1 3.02999 2.72699 1.51499 0.236873 
456 1 3.63598 2.72699 1.51499 0.236873 
460 1 4.24198 2.72699 1.51499 0.236873 
464 1 4.84798 2.72699 1.51499 0.236873 
468 1 5.45398 2.72699 1.51499 0.236873 
471 1 0.908996 3.02999 1.51499 0.236873 
475 1 1.51499 3.02999 1.51499 0.236873 
479 1 2.12099 3.02999 1.51499 0.236873 
483 1 2.72699 3.02999 1.51499 0.236873 
487 1 3.33299 3.02999 1.51499 0.236873 
491 1 3.93898 3.02999 1.51499 0.236873 
495 1 4.54498 3.02999 1.51499 0.236873 
499 1 5.15098 3.02999 1.51499 0.236873 
503 1 5.75697 3.02999 1.51499 0.236873 
472 1 0.605997 3.33299 1.51499 0.236873 
476 1 1.21199 3.33299 1.51499 0.236873 
480 1 1.81799 3.33299 1.51499 0.236873 
484 1 2.42399 3.33299 1.51499 0.236873 
488 1 3.02999 3.33299 1.51499 0.236873 
492 1 3.63598 3.33299 1.51499 0.236873 
496 1 4.24198 3.33299 1.51499 0.236873 
500 1 4.84798 3.33299 1.51499 0.236873 
504 1 5.45398 3.33299 1.51499 0.236873 
507 1 0.908996 3.63598 1.51499 0.236873 
511 1 1.51499 3.63598 1.51499 0.236873 
515 1 2.12099 3.63598 1.51499 0.236873 
519 1 2.72699 3.63598 1.51499 0.236873 
523 1 3.33299 3.63598 1.51499 0.236873 
527 1 3.93898 3.63598 1.51499 0.236873 
531 1 4.54498 3.63598 1.51499 0.236873 
535 1 5.15098 3.63598 1.51499 0.236873 
539 1 5.75697 3.63598 1.51499 0.236873 
508 1 0.605997 3.93898 1.51499 0.236873 
512 1 1.21199 3.93898 1.51499 0.236873 
516 1 1.81799 3.93898 1.51499 0.236873 
520 1 2.42399 3.93898 1.51499 0.236873 
524 1 3.02999 3.93898 1.51499 0.236873 
528 1 3.63598 3.93898 1.51499 0.236873 
532 1 4.24198 3.93898 1.51499 0.236873 
536 1 4.84798 3.93898 1.51499 0.236873 
540 1 5.45398 3.93898 1.51499 0.236873 
543 1 0.908996 4.24198 1.51499 0.236873 
547 1 1.51499 4.24198 1.51499 0.236873 
551 1 2.12099 4.24198 1.51499 0.236873 
555 1 2.72699 4.24198 1.51499 0.236873 
559 1 3.33299 4.24198 1.51499 0.236873 
563 1 3.93898 4.24198 1.51499 0.236873 
567 1 4.54498 4.24198 1.51499 0.236873 
571 1 5.15098 4.24198 1.51499 0.236873 
575 1 5.75697 4.24198 1.51499 0.236873 
544 1 0.605997 4.54498 1.51499 0.236873 
548 1 1.21199 4.54498 1.51499 0.236873 
552 1 1.81799 4.54498 1.51499 0.236873 
556 1 2.42399 4.54498 1.51499 0.236873 
560 1 3.02999 4.54498 1.51499 0.236873 
564 1 3.63598 4.54498 1.51499 0.236873 
568 1 4.24198 4.54498 1.51499 0.236873 
572 1 4.84798 4.54498 1.51499 0.236873 
576 1 5.45398 4.54498 1.51499 0.236873 
579 1 0.908996 4.84798 1.51499 0.236873 
583 1 1.51499 4.84798 1.51499 0.236873 
587 1 2.12099 4.84798 1.51499 0.236873 
591 1 2.72699 4.84798 1.51499 0.236873 
595 1 3.33299 4.84798 1.51499 0.236873 
599 1 3.93898 4.84798 1.51499 0.236873 
603 1 4.54498 4.84798 1.51499 0.236873 
607 1 5.15098 4.84798 1.51499 0.236873 
611 1 5.75697 4.84798 1.51499 0.236873 
580 1 0.605997 5.15098 1.51499 0.236873 
584 1 1.21199 5.15098 1.51499 0.236873 
588 1 1.81799 5.15098 1.51499 0.236873 
592 1 2.42399 5.15098 1.51499 0.236873 
596 1 3.02999 5.15098 1.51499 0.236873 
600 1 3.63598 5.15098 1.51499 0.236873 
604 1 4.24198 5.15098 1.51499 0.236873 
608 1 4.84798 5.15098 1.51499 0.236873 
612 1 5.45398 5.15098 1.51499 0.236873 
615 1 0.908996 5.45398 1.51499 0.236873 
619 1 1.51499 5.45398 1.51499 0.236873 
623 1 2.12099 5.45398 1.51499 0.236873 
627 1 2.72699 5.45398 1.51499 0.236873 
631 1 3.33299 5.45398 1.51499 0.236873 
635 1 3.93898 5.45398 1.51499 0.236873 
639 1 4.54498 5.45398 1.51499 0.236873 
643 1 5.15098 5.45398 1.51499 0.236873 
647 1 5.75697 5.45398 1.51499 0.236873 
616 1 0.605997 5.75697 1.51499 0.236873 
620 1 1.21199 5.75697 1.51499 0.236873 
624 1 1.81799 5.75697 1.51499 0.236873 
628 1 2.42399 5.75697 1.51499 0.236873 
632 1 3.02999 5.75697 1.51499 0.236873 
636 1 3.63598 5.75697 1.51499 0.236873 
640 1 4.24198 5.75697 1.51499 0.236873 
644 1 4.84798 5.75697 1.51499 0.236873 
648 1 5.45398 5.75697 1.51499 0.236873 
649 1 0.605997 0.605997 1.81799 0.236873 
653 1 1.21199 0.605997 1.81799 0.236873 
657 1 1.81799 0.605997 1.81799 0.236873 
661 1 2.42399 0.605997 1.81799 0.236873 
665 1 3.02999 0.605997 1.81799 0.236873 
669 1 3.63598 0.605997 1.81799 0.236873 
673 1 4.24198 0.605997 1.81799 0.236873 
677 1 4.84798 0.605997 1.81799 0.236873 
681 1 5.45398 0.605997 1.81799 0.236873 
650 1 0.908996 0.908996 1.81799 0.236873 
654 1 1.51499 0.908996 1.81799 0.236873 
658 1 2.12099 0.908996 1.81799 0.236873 
662 1 2.72699 0.908996 1.81799 0.236873 
666 1 3.33299 0.908996 1.81799 0.236873 
670 1 3.93898 0.908996 1.81799 0.236873 
674 1 4.54498 0.908996 1.81799 0.236873 
678 1 5.15098 0.908996 1.81799 0.236873 
682 1 5.75697 0.908996 1.81799 0.236873 
685 1 0.605997 1.21199 1.81799 0.236873 
689 1 1.21199 1.21199 1.81799 0.236873 
693 1 1.81799 1.21199 1.81799 0.236873 
697 1 2.42399 1.21199 1.81799 0.236873 
701 1 3.02999 1.21199 1.81799 0.236873 
705 1 3.63598 1.21199 1.81799 0.236873 
709 1 4.24198 1.21199 1.81799 0.236873 
713 1 4.84798 1.21199 1.81799 0.236873 
717 1 5.45398 1.21199 1.81799 0.236873 
686 1 0.908996 1.51499 1.81799 0.236873 
690 1 1.51499 1.51499 1.81799 0.236873 
694 1 2.12099 1.51499 1.81799 0.236873 
698 1 2.72699 1.51499 1.81799 0.236873 
702 1 3.33299 1.51499 1.81799 0.236873 
706 1 3.93898 1.51499 1.81799 0.236873 
710 1 4.54498 1.51499 1.81799 0.236873 
714 1 5.15098 1.51499 1.81799 0.236873 
718 1 5.75697 1.51499 1.81799 0.236873 
721 1 0.605997 1.81799 1.81799 0.236873 
725 1 1.21199 1.81799 1.81799 0.236873 
729 1 1.81799 1.81799 1.81799 0.236873 
733 1 2.42399 1.81799 1.81799 0.236873 
737 1 3.02999 1.81799 1.81799 0.236873 
741 1 3.63598 1.81799 1.81799 0.236873 
745 1 4.24198 1.81799 1.81799 0.236873 
749 1 4.84798 1.81799 1.81799 0.236873 
753 1 5.45398 1.81799 1.81799 0.236873 
722 1 0.908996 2.12099 1.81799 0.236873 
726 1 1.51499 2.12099 1.81799 0.236873 
730 1 2.12099 2.12099 1.81799 0.236873 
734 1 2.72699 2.12099 1.81799 0.236873 
738 1 3.33299 2.12099 1.81799 0.236873 
742 1 3.93898 2.12099 1.81799 0.236873 
746 1 4.54498 2.12099 1.81799 0.236873 
750 1 5.15098 2.12099 1.81799 0.236873 
754 1 5.75697 2.12099 1.81799 0.236873 
757 1 0.605997 2.42399 1.81799 0.236873 
761 1 1.21199 2.42399 1.81799 0.236873 
765 1 1.81799 2.42399 1.81799 0.236873 
769 1 2.42399 2.42399 1.81799 0.236873 
773 1 3.02999 2.42399 1.81799 0.236873 
777 1 3.63598 2.42399 1.81799 0.236873 
781 1 4.24198 2.42399 1.81799 0.236873 
785 1 4.84798 2.42399 1.81799 0.236873 
789 1 5.45398 2.42399 1.81799 0.236873 
758 1 0.908996 2.72699 1.81799 0.236873 
762 1 1.51499 2.72699 1.81799 0.236873 
766 1 2.12099 2.72699 1.81799 0.236873 
770 1 2.72699 2.72699 1.81799 0.236873 
774 1 3.33299 2.72699 1.81799 0.236873 
778 1 3.93898 2.72699 1.81799 0.236873 
782 1 4.54498 2.72699 1.81799 0.236873 
786 1 5.15098 2.72699 1.81799 0.236873 
790 1 5.75697 2.72699 1.81799 0.236873 
793 1 0.605997 3.02999 1.81799 0.236873 
797 1 1.21199 3.02999 1.81799 0.236873 
801 1 1.81799 3.02999 1.81799 0.236873 
805 1 2.42399 3.02999 1.81799 0.236873 
809 1 3.02999 3.02999 1.81799 0.236873 
813 1 3.63598 3.02999 1.81799 0.236873 
817 1 4.24198 3.02999 1.81799 0.236873 
821 1 4.84798 3.02999 1.81799 0.236873 
825 1 5.45398 3.02999 1.81799 0.236873 
794 1 0.908996 3.33299 1.81799 0.236873 
798 1 1.51499 3.33299 1.81799 0.236873 
802 1 2.12099 3.33299 1.81799 0.236873 
806 1 2.72699 3.33299 1.81799 0.236873 
810 1 3.33299 3.33299 1.81799 0.236873 