ITEM: TIMESTEP
0
ITEM: NUMBER OF ATOMS
192
ITEM: BOX BOUNDS pp pp ff
0.0000000000000000e+00 3.7551994819672401e+00
0.0000000000000000e+00 2.5034663213115000e+00
0.0000000000000000e+00 2.5034663213115000e+00
ITEM: ATOMS id type x y z radius 
1 1 0 0 0 0.244639 
4 2 0 0.312933 0.312933 0.244639 
2 1 0.312933 0.312933 0 0.244639 
3 2 0.312933 0 0.312933 0.244639 
5 1 0.625867 0 0 0.244639 
8 2 0.625867 0.312933 0.312933 0.244639 
6 1 0.9388 0.312933 0 0.244639 
7 2 0.9388 0 0.312933 0.244639 
9 1 1.25173 0 0 0.244639 
12 2 1.25173 0.312933 0.312933 0.244639 
10 1 1.56467 0.312933 0 0.244639 
11 2 1.56467 0 0.312933 0.244639 
13 1 1.8776 0 0 0.244639 
16 2 1.8776 0.312933 0.312933 0.244639 
14 1 2.19053 0.312933 0 0.244639 
15 2 2.19053 0 0.312933 0.244639 
17 1 2.50347 0 0 0.244639 
20 2 2.50347 0.312933 0.312933 0.244639 
18 1 2.8164 0.312933 0 0.244639 
19 2 2.8164 0 0.312933 0.244639 
21 1 3.12933 0 0 0.244639 
24 2 3.12933 0.312933 0.312933 0.244639 
22 1 3.44227 0.312933 0 0.244639 
23 2 3.44227 0 0.312933 0.244639 
25 1 0 0.625867 0 0.244639 
27 2 0.312933 0.625867 0.312933 0.244639 
29 1 0.625867 0.625867 0 0.244639 
31 2 0.9388 0.625867 0.312933 0.244639 
33 1 1.25173 0.625867 0 0.244639 
35 2 1.56467 0.625867 0.312933 0.244639 
37 1 1.8776 0.625867 0 0.244639 
39 2 2.19053 0.625867 0.312933 0.244639 
41 1 2.50347 0.625867 0 0.244639 
43 2 2.8164 0.625867 0.312933 0.244639 
45 1 3.12933 0.625867 0 0.244639 
47 2 3.44227 0.625867 0.312933 0.244639 
28 2 0 0.9388 0.312933 0.244639 
26 1 0.312933 0.9388 0 0.244639 
32 2 0.625867 0.9388 0.312933 0.244639 
30 1 0.9388 0.9388 0 0.244639 
36 2 1.25173 0.9388 0.312933 0.244639 
34 1 1.56467 0.9388 0 0.244639 
40 2 1.8776 0.9388 0.312933 0.244639 
38 1 2.19053 0.9388 0 0.244639 
44 2 2.50347 0.9388 0.312933 0.244639 
42 1 2.8164 0.9388 0 0.244639 
48 2 3.12933 0.9388 0.312933 0.244639 
46 1 3.44227 0.9388 0 0.244639 
49 1 0 1.25173 0 0.244639 
51 2 0.312933 1.25173 0.312933 0.244639 
53 1 0.625867 1.25173 0 0.244639 
55 2 0.9388 1.25173 0.312933 0.244639 
57 1 1.25173 1.25173 0 0.244639 
59 2 1.56467 1.25173 0.312933 0.244639 
61 1 1.8776 1.25173 0 0.244639 
63 2 2.19053 1.25173 0.312933 0.244639 
65 1 2.50347 1.25173 0 0.244639 
67 2 2.8164 1.25173 0.312933 0.244639 
69 1 3.12933 1.25173 0 0.244639 
71 2 3.44227 1.25173 0.312933 0.244639 
52 2 0 1.56467 0.312933 0.244639 
50 1 0.312933 1.56467 0 0.244639 
56 2 0.625867 1.56467 0.312933 0.244639 
54 1 0.9388 1.56467 0 0.244639 
60 2 1.25173 1.56467 0.312933 0.244639 
58 1 1.56467 1.56467 0 0.244639 
64 2 1.8776 1.56467 0.312933 0.244639 
62 1 2.19053 1.56467 0 0.244639 
68 2 2.50347 1.56467 0.312933 0.244639 
66 1 2.8164 1.56467 0 0.244639 
72 2 3.12933 1.56467 0.312933 0.244639 
70 1 3.44227 1.56467 0 0.244639 
73 1 0 1.8776 0 0.244639 
75 2 0.312933 1.8776 0.312933 0.244639 
77 1 0.625867 1.8776 0 0.244639 
79 2 0.9388 1.8776 0.312933 0.244639 
81 1 1.25173 1.8776 0 0.244639 
83 2 1.56467 1.8776 0.312933 0.244639 
85 1 1.8776 1.8776 0 0.244639 
87 2 2.19053 1.8776 0.312933 0.244639 
89 1 2.50347 1.8776 0 0.244639 
91 2 2.8164 1.8776 0.312933 0.244639 
93 1 3.12933 1.8776 0 0.244639 
95 2 3.44227 1.8776 0.312933 0.244639 
76 2 0 2.19053 0.312933 0.244639 
74 1 0.312933 2.19053 0 0.244639 
80 2 0.625867 2.19053 0.312933 0.244639 
78 1 0.9388 2.19053 0 0.244639 
84 2 1.25173 2.19053 0.312933 0.244639 
82 1 1.56467 2.19053 0 0.244639 
88 2 1.8776 2.19053 0.312933 0.244639 
86 1 2.19053 2.19053 0 0.244639 
92 2 2.50347 2.19053 0.312933 0.244639 
90 1 2.8164 2.19053 0 0.244639 
96 2 3.12933 2.19053 0.312933 0.244639 
94 1 3.44227 2.19053 0 0.244639 
97 2 0 0 0.625867 0.244639 
98 2 0.312933 0.312933 0.625867 0.244639 
101 2 0.625867 0 0.625867 0.244639 
102 2 0.9388 0.312933 0.625867 0.244639 
105 2 1.25173 0 0.625867 0.244639 
106 2 1.56467 0.312933 0.625867 0.244639 
109 2 1.8776 0 0.625867 0.244639 
110 2 2.19053 0.312933 0.625867 0.244639 
113 2 2.50347 0 0.625867 0.244639 
114 2 2.8164 0.312933 0.625867 0.244639 
117 2 3.12933 0 0.625867 0.244639 
118 2 3.44227 0.312933 0.625867 0.244639 
121 2 0 0.625867 0.625867 0.244639 
125 2 0.625867 0.625867 0.625867 0.244639 
129 2 1.25173 0.625867 0.625867 0.244639 
133 2 1.8776 0.625867 0.625867 0.244639 
137 2 2.50347 0.625867 0.625867 0.244639 
141 2 3.12933 0.625867 0.625867 0.244639 
122 2 0.312933 0.9388 0.625867 0.244639 
126 2 0.9388 0.9388 0.625867 0.244639 
130 2 1.56467 0.9388 0.625867 0.244639 
134 2 2.19053 0.9388 0.625867 0.244639 
138 2 2.8164 0.9388 0.625867 0.244639 
142 2 3.44227 0.9388 0.625867 0.244639 
145 2 0 1.25173 0.625867 0.244639 
149 2 0.625867 1.25173 0.625867 0.244639 
153 2 1.25173 1.25173 0.625867 0.244639 
157 2 1.8776 1.25173 0.625867 0.244639 
161 2 2.50347 1.25173 0.625867 0.244639 
165 2 3.12933 1.25173 0.625867 0.244639 
146 2 0.312933 1.56467 0.625867 0.244639 
150 2 0.9388 1.56467 0.625867 0.244639 
154 2 1.56467 1.56467 0.625867 0.244639 
158 2 2.19053 1.56467 0.625867 0.244639 
162 2 2.8164 1.56467 0.625867 0.244639 
166 2 3.44227 1.56467 0.625867 0.244639 
169 2 0 1.8776 0.625867 0.244639 
173 2 0.625867 1.8776 0.625867 0.244639 
177 2 1.25173 1.8776 0.625867 0.244639 
181 2 1.8776 1.8776 0.625867 0.244639 
185 2 2.50347 1.8776 0.625867 0.244639 
189 2 3.12933 1.8776 0.625867 0.244639 
170 2 0.312933 2.19053 0.625867 0.244639 
174 2 0.9388 2.19053 0.625867 0.244639 
178 2 1.56467 2.19053 0.625867 0.244639 
182 2 2.19053 2.19053 0.625867 0.244639 
186 2 2.8164 2.19053 0.625867 0.244639 
190 2 3.44227 2.19053 0.625867 0.244639 
100 2 0 0.312933 0.9388 0.244639 
99 2 0.312933 0 0.9388 0.244639 
104 2 0.625867 0.312933 0.9388 0.244639 
103 2 0.9388 0 0.9388 0.244639 
108 2 1.25173 0.312933 0.9388 0.244639 
107 2 1.56467 0 0.9388 0.244639 
112 2 1.8776 0.312933 0.9388 0.244639 
111 2 2.19053 0 0.9388 0.244639 
116 2 2.50347 0.312933 0.9388 0.244639 
115 2 2.8164 0 0.9388 0.244639 
120 2 3.12933 0.312933 0.9388 0.244639 
119 2 3.44227 0 0.9388 0.244639 
123 2 0.312933 0.625867 0.9388 0.244639 
127 2 0.9388 0.625867 0.9388 0.244639 
131 2 1.56467 0.625867 0.9388 0.244639 
135 2 2.19053 0.625867 0.9388 0.244639 
139 2 2.8164 0.625867 0.9388 0.244639 
143 2 3.44227 0.625867 0.9388 0.244639 
124 2 0 0.9388 0.9388 0.244639 
128 2 0.625867 0.9388 0.9388 0.244639 
132 2 1.25173 0.9388 0.9388 0.244639 
136 2 1.8776 0.9388 0.9388 0.244639 
140 2 2.50347 0.9388 0.9388 0.244639 
144 2 3.12933 0.9388 0.9388 0.244639 
147 2 0.312933 1.25173 0.9388 0.244639 
151 2 0.9388 1.25173 0.9388 0.244639 
155 2 1.56467 1.25173 0.9388 0.244639 
159 2 2.19053 1.25173 0.9388 0.244639 
163 2 2.8164 1.25173 0.9388 0.244639 
167 2 3.44227 1.25173 0.9388 0.244639 
148 2 0 1.56467 0.9388 0.244639 
152 2 0.625867 1.56467 0.9388 0.244639 
156 2 1.25173 1.56467 0.9388 0.244639 
160 2 1.8776 1.56467 0.9388 0.244639 
164 2 2.50347 1.56467 0.9388 0.244639 
168 2 3.12933 1.56467 0.9388 0.244639 
171 2 0.312933 1.8776 0.9388 0.244639 
175 2 0.9388 1.8776 0.9388 0.244639 
179 2 1.56467 1.8776 0.9388 0.244639 
183 2 2.19053 1.8776 0.9388 0.244639 
187 2 2.8164 1.8776 0.9388 0.244639 
191 2 3.44227 1.8776 0.9388 0.244639 
172 2 0 2.19053 0.9388 0.244639 
176 2 0.625867 2.19053 0.9388 0.244639 
180 2 1.25173 2.19053 0.9388 0.244639 
184 2 1.8776 2.19053 0.9388 0.244639 
188 2 2.50347 2.19053 0.9388 0.244639 
192 2 3.12933 2.19053 0.9388 0.244639 
ITEM: TIMESTEP
1
ITEM: NUMBER OF ATOMS
192
ITEM: BOX BOUNDS pp pp ff
0.0000000000000000e+00 3.7551994819672401e+00
0.0000000000000000e+00 2.5034663213115000e+00
0.0000000000000000e+00 2.5034663213115000e+00
ITEM: ATOMS id type x y z radius 
1 1 0 0 0 0.244639 
4 2 5.27483e-15 0.312933 0.312933 0.244639 
2 1 0.312933 0.312933 0 0.244639 
3 2 0.312933 2.50347 0.312933 0.244639 
5 1 0.625867 0 0 0.244639 
8 2 0.625867 0.312933 0.312933 0.244639 
6 1 0.9388 0.312933 0 0.244639 
7 2 0.9388 2.50347 0.312933 0.244639 
9 1 1.25173 0 0 0.244639 
12 2 1.25173 0.312933 0.312933 0.244639 
10 1 1.56467 0.312933 0 0.244639 
11 2 1.56467 2.50347 0.312933 0.244639 
13 1 1.8776 0 0 0.244639 
16 2 1.8776 0.312933 0.312933 0.244639 
14 1 2.19053 0.312933 0 0.244639 
15 2 2.19053 2.50347 0.312933 0.244639 
17 1 2.50347 0 0 0.244639 
20 2 2.50347 0.312933 0.312933 0.244639 
18 1 2.8164 0.312933 0 0.244639 
19 2 2.8164 2.50347 0.312933 0.244639 
21 1 3.12933 0 0 0.244639 
24 2 3.12933 0.312933 0.312933 0.244639 
22 1 3.44227 0.312933 0 0.244639 
23 2 3.44227 2.50347 0.312933 0.244639 
25 1 0 0.625867 0 0.244639 
27 2 0.312933 0.625867 0.312933 0.244639 
29 1 0.625867 0.625867 0 0.244639 
31 2 0.9388 0.625867 0.312933 0.244639 
33 1 1.25173 0.625867 0 0.244639 
35 2 1.56467 0.625867 0.312933 0.244639 
37 1 1.8776 0.625867 0 0.244639 
39 2 2.19053 0.625867 0.312933 0.244639 
41 1 2.50347 0.625867 0 0.244639 
43 2 2.8164 0.625867 0.312933 0.244639 
45 1 3.12933 0.625867 0 0.244639 
47 2 3.44227 0.625867 0.312933 0.244639 
28 2 5.27483e-15 0.9388 0.312933 0.244639 
26 1 0.312933 0.9388 0 0.244639 
32 2 0.625867 0.9388 0.312933 0.244639 
30 1 0.9388 0.9388 0 0.244639 
36 2 1.25173 0.9388 0.312933 0.244639 
34 1 1.56467 0.9388 0 0.244639 
40 2 1.8776 0.9388 0.312933 0.244639 
38 1 2.19053 0.9388 0 0.244639 
44 2 2.50347 0.9388 0.312933 0.244639 
42 1 2.8164 0.9388 0 0.244639 
48 2 3.12933 0.9388 0.312933 0.244639 
46 1 3.44227 0.9388 0 0.244639 
49 1 0 1.25173 0 0.244639 
51 2 0.312933 1.25173 0.312933 0.244639 
53 1 0.625867 1.25173 0 0.244639 
55 2 0.9388 1.25173 0.312933 0.244639 
57 1 1.25173 1.25173 0 0.244639 
59 2 1.56467 1.25173 0.312933 0.244639 
61 1 1.8776 1.25173 0 0.244639 
63 2 2.19053 1.25173 0.312933 0.244639 
65 1 2.50347 1.25173 0 0.244639 
67 2 2.8164 1.25173 0.312933 0.244639 
69 1 3.12933 1.25173 0 0.244639 
71 2 3.44227 1.25173 0.312933 0.244639 
52 2 5.27483e-15 1.56467 0.312933 0.244639 
50 1 0.312933 1.56467 0 0.244639 
56 2 0.625867 1.56467 0.312933 0.244639 
54 1 0.9388 1.56467 0 0.244639 
60 2 1.25173 1.56467 0.312933 0.244639 
58 1 1.56467 1.56467 0 0.244639 
64 2 1.8776 1.56467 0.312933 0.244639 
62 1 2.19053 1.56467 0 0.244639 
68 2 2.50347 1.56467 0.312933 0.244639 
66 1 2.8164 1.56467 0 0.244639 
72 2 3.12933 1.56467 0.312933 0.244639 
70 1 3.44227 1.56467 0 0.244639 
73 1 0 1.8776 0 0.244639 
75 2 0.312933 1.8776 0.312933 0.244639 
77 1 0.625867 1.8776 0 0.244639 
79 2 0.9388 1.8776 0.312933 0.244639 
81 1 1.25173 1.8776 0 0.244639 
83 2 1.56467 1.8776 0.312933 0.244639 
85 1 1.8776 1.8776 0 0.244639 
87 2 2.19053 1.8776 0.312933 0.244639 
89 1 2.50347 1.8776 0 0.244639 
91 2 2.8164 1.8776 0.312933 0.244639 
93 1 3.12933 1.8776 0 0.244639 
95 2 3.44227 1.8776 0.312933 0.244639 
76 2 5.27483e-15 2.19053 0.312933 0.244639 
74 1 0.312933 2.19053 0 0.244639 
80 2 0.625867 2.19053 0.312933 0.244639 
78 1 0.9388 2.19053 0 0.244639 
84 2 1.25173 2.19053 0.312933 0.244639 
82 1 1.56467 2.19053 0 0.244639 
88 2 1.8776 2.19053 0.312933 0.244639 
86 1 2.19053 2.19053 0 0.244639 
92 2 2.50347 2.19053 0.312933 0.244639 
90 1 2.8164 2.19053 0 0.244639 
96 2 3.12933 2.19053 0.312933 0.244639 
94 1 3.44227 2.19053 0 0.244639 
97 2 5.27482e-15 2.50347 0.625867 0.244639 
98 2 0.312933 0.312933 0.625867 0.244639 
101 2 0.625867 2.50347 0.625867 0.244639 
102 2 0.9388 0.312933 0.625867 0.244639 
105 2 1.25173 2.50347 0.625867 0.244639 
106 2 1.56467 0.312933 0.625867 0.244639 
109 2 1.8776 2.50347 0.625867 0.244639 
110 2 2.19053 0.312933 0.625867 0.244639 
113 2 2.50347 2.50347 0.625867 0.244639 
114 2 2.8164 0.312933 0.625867 0.244639 
117 2 3.12933 2.50347 0.625867 0.244639 
118 2 3.44227 0.312933 0.625867 0.244639 
121 2 5.27483e-15 0.625867 0.625867 0.244639 
125 2 0.625867 0.625867 0.625867 0.244639 
129 2 1.25173 0.625867 0.625867 0.244639 
133 2 1.8776 0.625867 0.625867 0.244639 
137 2 2.50347 0.625867 0.625867 0.244639 
141 2 3.12933 0.625867 0.625867 0.244639 
122 2 0.312933 0.9388 0.625867 0.244639 
126 2 0.9388 0.9388 0.625867 0.244639 
130 2 1.56467 0.9388 0.625867 0.244639 
134 2 2.19053 0.9388 0.625867 0.244639 
138 2 2.8164 0.9388 0.625867 0.244639 
142 2 3.44227 0.9388 0.625867 0.244639 
145 2 5.27483e-15 1.25173 0.625867 0.244639 
149 2 0.625867 1.25173 0.625867 0.244639 
153 2 1.25173 1.25173 0.625867 0.244639 
157 2 1.8776 1.25173 0.625867 0.244639 
161 2 2.50347 1.25173 0.625867 0.244639 
165 2 3.12933 1.25173 0.625867 0.244639 
146 2 0.312933 1.56467 0.625867 0.244639 
150 2 0.9388 1.56467 0.625867 0.244639 
154 2 1.56467 1.56467 0.625867 0.244639 
158 2 2.19053 1.56467 0.625867 0.244639 
162 2 2.8164 1.56467 0.625867 0.244639 
166 2 3.44227 1.56467 0.625867 0.244639 
169 2 5.27483e-15 1.8776 0.625867 0.244639 
173 2 0.625867 1.8776 0.625867 0.244639 
177 2 1.25173 1.8776 0.625867 0.244639 
181 2 1.8776 1.8776 0.625867 0.244639 
185 2 2.50347 1.8776 0.625867 0.244639 
189 2 3.12933 1.8776 0.625867 0.244639 
170 2 0.312933 2.19053 0.625867 0.244639 
174 2 0.9388 2.19053 0.625867 0.244639 
178 2 1.56467 2.19053 0.625867 0.244639 
182 2 2.19053 2.19053 0.625867 0.244639 
186 2 2.8164 2.19053 0.625867 0.244639 
190 2 3.44227 2.19053 0.625867 0.244639 
100 2 3.95613e-15 0.312933 0.938686 0.244639 
99 2 0.312933 2.50347 0.938686 0.244639 
104 2 0.625867 0.312933 0.938686 0.244639 
103 2 0.9388 2.50347 0.938686 0.244639 
108 2 1.25173 0.312933 0.938686 0.244639 
107 2 1.56467 2.50347 0.938686 0.244639 
112 2 1.8776 0.312933 0.938686 0.244639 
111 2 2.19053 2.50347 0.938686 0.244639 
116 2 2.50347 0.312933 0.938686 0.244639 
115 2 2.8164 2.50347 0.938686 0.244639 
120 2 3.12933 0.312933 0.938686 0.244639 
119 2 3.44227 2.50347 0.938686 0.244639 
123 2 0.312933 0.625867 0.938686 0.244639 
127 2 0.9388 0.625867 0.938686 0.244639 
131 2 1.56467 0.625867 0.938686 0.244639 
135 2 2.19053 0.625867 0.938686 0.244639 
139 2 2.8164 0.625867 0.938686 0.244639 
143 2 3.44227 0.625867 0.938686 0.244639 
124 2 3.95613e-15 0.9388 0.938686 0.244639 
128 2 0.625867 0.9388 0.938686 0.244639 
132 2 1.25173 0.9388 0.938686 0.244639 
136 2 1.8776 0.9388 0.938686 0.244639 
140 2 2.50347 0.9388 0.938686 0.244639 
144 2 3.12933 0.9388 0.938686 0.244639 
147 2 0.312933 1.25173 0.938686 0.244639 
151 2 0.9388 1.25173 0.938686 0.244639 
155 2 1.56467 1.25173 0.938686 0.244639 
159 2 2.19053 1.25173 0.938686 0.244639 
163 2 2.8164 1.25173 0.938686 0.244639 
167 2 3.44227 1.25173 0.938686 0.244639 
148 2 3.95613e-15 1.56467 0.938686 0.244639 
152 2 0.625867 1.56467 0.938686 0.244639 
156 2 1.25173 1.56467 0.938686 0.244639 
160 2 1.8776 1.56467 0.938686 0.244639 
164 2 2.50347 1.56467 0.938686 0.244639 
168 2 3.12933 1.56467 0.938686 0.244639 
171 2 0.312933 1.8776 0.938686 0.244639 
175 2 0.9388 1.8776 0.938686 0.244639 
179 2 1.56467 1.8776 0.938686 0.244639 
183 2 2.19053 1.8776 0.938686 0.244639 
187 2 2.8164 1.8776 0.938686 0.244639 
191 2 3.44227 1.8776 0.938686 0.244639 
172 2 3.95613e-15 2.19053 0.938686 0.244639 
176 2 0.625867 2.19053 0.938686 0.244639 
180 2 1.25173 2.19053 0.938686 0.244639 
184 2 1.8776 2.19053 0.938686 0.244639 
188 2 2.50347 2.19053 0.938686 0.244639 
192 2 3.12933 2.19053 0.938686 0.244639 
