ITEM: TIMESTEP
0
ITEM: NUMBER OF ATOMS
996
ITEM: BOX BOUNDS pp ff ff
0.0000000000000000e+00 9.3879987049181093e+00
0.0000000000000000e+00 3.7551994819672401e+00
0.0000000000000000e+00 3.1293329016393701e+00
ITEM: ATOMS id type x y z radius 
1 1 0 0 0 0.244639 
5 1 0.625867 0 0 0.244639 
9 1 1.25173 0 0 0.244639 
13 1 1.8776 0 0 0.244639 
17 1 2.50347 0 0 0.244639 
21 1 3.12933 0 0 0.244639 
25 1 3.7552 0 0 0.244639 
29 1 4.38107 0 0 0.244639 
33 1 5.00693 0 0 0.244639 
37 1 5.6328 0 0 0.244639 
41 1 6.25867 0 0 0.244639 
45 1 6.88453 0 0 0.244639 
49 1 7.5104 0 0 0.244639 
53 1 8.13627 0 0 0.244639 
57 1 8.76213 0 0 0.244639 
2 1 0.312933 0.312933 0 0.244639 
6 1 0.9388 0.312933 0 0.244639 
10 1 1.56467 0.312933 0 0.244639 
14 1 2.19053 0.312933 0 0.244639 
18 1 2.8164 0.312933 0 0.244639 
22 1 3.44227 0.312933 0 0.244639 
26 1 4.06813 0.312933 0 0.244639 
30 1 4.694 0.312933 0 0.244639 
34 1 5.31987 0.312933 0 0.244639 
38 1 5.94573 0.312933 0 0.244639 
42 1 6.5716 0.312933 0 0.244639 
46 1 7.19747 0.312933 0 0.244639 
50 1 7.82333 0.312933 0 0.244639 
54 1 8.4492 0.312933 0 0.244639 
58 1 9.07507 0.312933 0 0.244639 
61 1 0 0.625867 0 0.244639 
65 1 0.625867 0.625867 0 0.244639 
69 1 1.25173 0.625867 0 0.244639 
73 1 1.8776 0.625867 0 0.244639 
77 1 2.50347 0.625867 0 0.244639 
81 1 3.12933 0.625867 0 0.244639 
85 1 3.7552 0.625867 0 0.244639 
89 1 4.38107 0.625867 0 0.244639 
93 1 5.00693 0.625867 0 0.244639 
97 1 5.6328 0.625867 0 0.244639 
101 1 6.25867 0.625867 0 0.244639 
105 1 6.88453 0.625867 0 0.244639 
109 1 7.5104 0.625867 0 0.244639 
113 1 8.13627 0.625867 0 0.244639 
117 1 8.76213 0.625867 0 0.244639 
62 1 0.312933 0.9388 0 0.244639 
66 1 0.9388 0.9388 0 0.244639 
70 1 1.56467 0.9388 0 0.244639 
74 1 2.19053 0.9388 0 0.244639 
78 1 2.8164 0.9388 0 0.244639 
82 1 3.44227 0.9388 0 0.244639 
86 1 4.06813 0.9388 0 0.244639 
90 1 4.694 0.9388 0 0.244639 
94 1 5.31987 0.9388 0 0.244639 
98 1 5.94573 0.9388 0 0.244639 
102 1 6.5716 0.9388 0 0.244639 
106 1 7.19747 0.9388 0 0.244639 
110 1 7.82333 0.9388 0 0.244639 
114 1 8.4492 0.9388 0 0.244639 
118 1 9.07507 0.9388 0 0.244639 
121 1 0 1.25173 0 0.244639 
125 1 0.625867 1.25173 0 0.244639 
129 1 1.25173 1.25173 0 0.244639 
133 1 1.8776 1.25173 0 0.244639 
137 1 2.50347 1.25173 0 0.244639 
141 1 3.12933 1.25173 0 0.244639 
145 1 3.7552 1.25173 0 0.244639 
149 1 4.38107 1.25173 0 0.244639 
153 1 5.00693 1.25173 0 0.244639 
157 1 5.6328 1.25173 0 0.244639 
161 1 6.25867 1.25173 0 0.244639 
165 1 6.88453 1.25173 0 0.244639 
169 1 7.5104 1.25173 0 0.244639 
173 1 8.13627 1.25173 0 0.244639 
177 1 8.76213 1.25173 0 0.244639 
122 1 0.312933 1.56467 0 0.244639 
126 1 0.9388 1.56467 0 0.244639 
130 1 1.56467 1.56467 0 0.244639 
134 1 2.19053 1.56467 0 0.244639 
138 1 2.8164 1.56467 0 0.244639 
142 1 3.44227 1.56467 0 0.244639 
146 1 4.06813 1.56467 0 0.244639 
150 1 4.694 1.56467 0 0.244639 
154 1 5.31987 1.56467 0 0.244639 
158 1 5.94573 1.56467 0 0.244639 
162 1 6.5716 1.56467 0 0.244639 
166 1 7.19747 1.56467 0 0.244639 
170 1 7.82333 1.56467 0 0.244639 
174 1 8.4492 1.56467 0 0.244639 
178 1 9.07507 1.56467 0 0.244639 
181 1 0 1.8776 0 0.244639 
185 1 0.625867 1.8776 0 0.244639 
189 1 1.25173 1.8776 0 0.244639 
193 1 1.8776 1.8776 0 0.244639 
197 1 2.50347 1.8776 0 0.244639 
201 1 3.12933 1.8776 0 0.244639 
205 1 3.7552 1.8776 0 0.244639 
209 1 4.38107 1.8776 0 0.244639 
213 1 5.00693 1.8776 0 0.244639 
217 1 5.6328 1.8776 0 0.244639 
221 1 6.25867 1.8776 0 0.244639 
225 1 6.88453 1.8776 0 0.244639 
229 1 7.5104 1.8776 0 0.244639 
233 1 8.13627 1.8776 0 0.244639 
237 1 8.76213 1.8776 0 0.244639 
182 1 0.312933 2.19053 0 0.244639 
186 1 0.9388 2.19053 0 0.244639 
190 1 1.56467 2.19053 0 0.244639 
194 1 2.19053 2.19053 0 0.244639 
198 1 2.8164 2.19053 0 0.244639 
202 1 3.44227 2.19053 0 0.244639 
206 1 4.06813 2.19053 0 0.244639 
210 1 4.694 2.19053 0 0.244639 
214 1 5.31987 2.19053 0 0.244639 
218 1 5.94573 2.19053 0 0.244639 
222 1 6.5716 2.19053 0 0.244639 
226 1 7.19747 2.19053 0 0.244639 
230 1 7.82333 2.19053 0 0.244639 
234 1 8.4492 2.19053 0 0.244639 
238 1 9.07507 2.19053 0 0.244639 
241 1 0 2.50347 0 0.244639 
245 1 0.625867 2.50347 0 0.244639 
249 1 1.25173 2.50347 0 0.244639 
253 1 1.8776 2.50347 0 0.244639 
257 1 2.50347 2.50347 0 0.244639 
261 1 3.12933 2.50347 0 0.244639 
265 1 3.7552 2.50347 0 0.244639 
269 1 4.38107 2.50347 0 0.244639 
273 1 5.00693 2.50347 0 0.244639 
277 1 5.6328 2.50347 0 0.244639 
281 1 6.25867 2.50347 0 0.244639 
285 1 6.88453 2.50347 0 0.244639 
289 1 7.5104 2.50347 0 0.244639 
293 1 8.13627 2.50347 0 0.244639 
297 1 8.76213 2.50347 0 0.244639 
242 1 0.312933 2.8164 0 0.244639 
246 1 0.9388 2.8164 0 0.244639 
250 1 1.56467 2.8164 0 0.244639 
254 1 2.19053 2.8164 0 0.244639 
258 1 2.8164 2.8164 0 0.244639 
262 1 3.44227 2.8164 0 0.244639 
266 1 4.06813 2.8164 0 0.244639 
270 1 4.694 2.8164 0 0.244639 
274 1 5.31987 2.8164 0 0.244639 
278 1 5.94573 2.8164 0 0.244639 
282 1 6.5716 2.8164 0 0.244639 
286 1 7.19747 2.8164 0 0.244639 
290 1 7.82333 2.8164 0 0.244639 
294 1 8.4492 2.8164 0 0.244639 
298 1 9.07507 2.8164 0 0.244639 
301 1 0 3.12933 0 0.244639 
305 1 0.625867 3.12933 0 0.244639 
309 1 1.25173 3.12933 0 0.244639 
313 1 1.8776 3.12933 0 0.244639 
317 1 2.50347 3.12933 0 0.244639 
321 1 3.12933 3.12933 0 0.244639 
325 1 3.7552 3.12933 0 0.244639 
329 1 4.38107 3.12933 0 0.244639 
333 1 5.00693 3.12933 0 0.244639 
337 1 5.6328 3.12933 0 0.244639 
341 1 6.25867 3.12933 0 0.244639 
345 1 6.88453 3.12933 0 0.244639 
349 1 7.5104 3.12933 0 0.244639 
353 1 8.13627 3.12933 0 0.244639 
357 1 8.76213 3.12933 0 0.244639 
302 1 0.312933 3.44227 0 0.244639 
306 1 0.9388 3.44227 0 0.244639 
310 1 1.56467 3.44227 0 0.244639 
314 1 2.19053 3.44227 0 0.244639 
318 1 2.8164 3.44227 0 0.244639 
322 1 3.44227 3.44227 0 0.244639 
326 1 4.06813 3.44227 0 0.244639 
330 1 4.694 3.44227 0 0.244639 
334 1 5.31987 3.44227 0 0.244639 
338 1 5.94573 3.44227 0 0.244639 
342 1 6.5716 3.44227 0 0.244639 
346 1 7.19747 3.44227 0 0.244639 
350 1 7.82333 3.44227 0 0.244639 
354 1 8.4492 3.44227 0 0.244639 
358 1 9.07507 3.44227 0 0.244639 
3 1 0.312933 0 0.312933 0.244639 
7 1 0.9388 0 0.312933 0.244639 
11 1 1.56467 0 0.312933 0.244639 
15 1 2.19053 0 0.312933 0.244639 
19 1 2.8164 0 0.312933 0.244639 
23 1 3.44227 0 0.312933 0.244639 
27 1 4.06813 0 0.312933 0.244639 
31 1 4.694 0 0.312933 0.244639 
35 1 5.31987 0 0.312933 0.244639 
39 1 5.94573 0 0.312933 0.244639 
43 1 6.5716 0 0.312933 0.244639 
47 1 7.19747 0 0.312933 0.244639 
51 1 7.82333 0 0.312933 0.244639 
55 1 8.4492 0 0.312933 0.244639 
59 1 9.07507 0 0.312933 0.244639 
4 1 0 0.312933 0.312933 0.244639 
8 1 0.625867 0.312933 0.312933 0.244639 
12 1 1.25173 0.312933 0.312933 0.244639 
16 1 1.8776 0.312933 0.312933 0.244639 
20 1 2.50347 0.312933 0.312933 0.244639 
24 1 3.12933 0.312933 0.312933 0.244639 
28 1 3.7552 0.312933 0.312933 0.244639 
32 1 4.38107 0.312933 0.312933 0.244639 
36 1 5.00693 0.312933 0.312933 0.244639 
40 1 5.6328 0.312933 0.312933 0.244639 
44 1 6.25867 0.312933 0.312933 0.244639 
48 1 6.88453 0.312933 0.312933 0.244639 
52 1 7.5104 0.312933 0.312933 0.244639 
56 1 8.13627 0.312933 0.312933 0.244639 
60 1 8.76213 0.312933 0.312933 0.244639 
63 1 0.312933 0.625867 0.312933 0.244639 
67 1 0.9388 0.625867 0.312933 0.244639 
71 1 1.56467 0.625867 0.312933 0.244639 
75 1 2.19053 0.625867 0.312933 0.244639 
79 1 2.8164 0.625867 0.312933 0.244639 
83 1 3.44227 0.625867 0.312933 0.244639 
87 1 4.06813 0.625867 0.312933 0.244639 
91 1 4.694 0.625867 0.312933 0.244639 
95 1 5.31987 0.625867 0.312933 0.244639 
99 1 5.94573 0.625867 0.312933 0.244639 
103 1 6.5716 0.625867 0.312933 0.244639 
107 1 7.19747 0.625867 0.312933 0.244639 
111 1 7.82333 0.625867 0.312933 0.244639 
115 1 8.4492 0.625867 0.312933 0.244639 
119 1 9.07507 0.625867 0.312933 0.244639 
64 1 0 0.9388 0.312933 0.244639 
68 1 0.625867 0.9388 0.312933 0.244639 
72 1 1.25173 0.9388 0.312933 0.244639 
76 1 1.8776 0.9388 0.312933 0.244639 
80 1 2.50347 0.9388 0.312933 0.244639 
84 1 3.12933 0.9388 0.312933 0.244639 
88 1 3.7552 0.9388 0.312933 0.244639 
92 1 4.38107 0.9388 0.312933 0.244639 
96 1 5.00693 0.9388 0.312933 0.244639 
100 1 5.6328 0.9388 0.312933 0.244639 
104 1 6.25867 0.9388 0.312933 0.244639 
108 1 6.88453 0.9388 0.312933 0.244639 
112 1 7.5104 0.9388 0.312933 0.244639 
116 1 8.13627 0.9388 0.312933 0.244639 
120 1 8.76213 0.9388 0.312933 0.244639 
123 1 0.312933 1.25173 0.312933 0.244639 
127 1 0.9388 1.25173 0.312933 0.244639 
131 1 1.56467 1.25173 0.312933 0.244639 
135 1 2.19053 1.25173 0.312933 0.244639 
139 1 2.8164 1.25173 0.312933 0.244639 
143 1 3.44227 1.25173 0.312933 0.244639 
147 1 4.06813 1.25173 0.312933 0.244639 
151 1 4.694 1.25173 0.312933 0.244639 
155 1 5.31987 1.25173 0.312933 0.244639 
159 1 5.94573 1.25173 0.312933 0.244639 
163 1 6.5716 1.25173 0.312933 0.244639 
167 1 7.19747 1.25173 0.312933 0.244639 
171 1 7.82333 1.25173 0.312933 0.244639 
175 1 8.4492 1.25173 0.312933 0.244639 
179 1 9.07507 1.25173 0.312933 0.244639 
124 1 0 1.56467 0.312933 0.244639 
128 1 0.625867 1.56467 0.312933 0.244639 
132 1 1.25173 1.56467 0.312933 0.244639 
136 1 1.8776 1.56467 0.312933 0.244639 
140 1 2.50347 1.56467 0.312933 0.244639 
144 1 3.12933 1.56467 0.312933 0.244639 
148 1 3.7552 1.56467 0.312933 0.244639 
152 1 4.38107 1.56467 0.312933 0.244639 
156 1 5.00693 1.56467 0.312933 0.244639 
160 1 5.6328 1.56467 0.312933 0.244639 
164 1 6.25867 1.56467 0.312933 0.244639 
168 1 6.88453 1.56467 0.312933 0.244639 
172 1 7.5104 1.56467 0.312933 0.244639 
176 1 8.13627 1.56467 0.312933 0.244639 
180 1 8.76213 1.56467 0.312933 0.244639 
183 1 0.312933 1.8776 0.312933 0.244639 
187 1 0.9388 1.8776 0.312933 0.244639 
191 1 1.56467 1.8776 0.312933 0.244639 
195 1 2.19053 1.8776 0.312933 0.244639 
199 1 2.8164 1.8776 0.312933 0.244639 
203 1 3.44227 1.8776 0.312933 0.244639 
207 1 4.06813 1.8776 0.312933 0.244639 
211 1 4.694 1.8776 0.312933 0.244639 
215 1 5.31987 1.8776 0.312933 0.244639 
219 1 5.94573 1.8776 0.312933 0.244639 
223 1 6.5716 1.8776 0.312933 0.244639 
227 1 7.19747 1.8776 0.312933 0.244639 
231 1 7.82333 1.8776 0.312933 0.244639 
235 1 8.4492 1.8776 0.312933 0.244639 
239 1 9.07507 1.8776 0.312933 0.244639 
184 1 0 2.19053 0.312933 0.244639 
188 1 0.625867 2.19053 0.312933 0.244639 
192 1 1.25173 2.19053 0.312933 0.244639 
196 1 1.8776 2.19053 0.312933 0.244639 
200 1 2.50347 2.19053 0.312933 0.244639 
204 1 3.12933 2.19053 0.312933 0.244639 
208 1 3.7552 2.19053 0.312933 0.244639 
212 1 4.38107 2.19053 0.312933 0.244639 
216 1 5.00693 2.19053 0.312933 0.244639 
220 1 5.6328 2.19053 0.312933 0.244639 
224 1 6.25867 2.19053 0.312933 0.244639 
228 1 6.88453 2.19053 0.312933 0.244639 
232 1 7.5104 2.19053 0.312933 0.244639 
236 1 8.13627 2.19053 0.312933 0.244639 
240 1 8.76213 2.19053 0.312933 0.244639 
243 1 0.312933 2.50347 0.312933 0.244639 
247 1 0.9388 2.50347 0.312933 0.244639 
251 1 1.56467 2.50347 0.312933 0.244639 
255 1 2.19053 2.50347 0.312933 0.244639 
259 1 2.8164 2.50347 0.312933 0.244639 
263 1 3.44227 2.50347 0.312933 0.244639 
267 1 4.06813 2.50347 0.312933 0.244639 
271 1 4.694 2.50347 0.312933 0.244639 
275 1 5.31987 2.50347 0.312933 0.244639 
279 1 5.94573 2.50347 0.312933 0.244639 
283 1 6.5716 2.50347 0.312933 0.244639 
287 1 7.19747 2.50347 0.312933 0.244639 
291 1 7.82333 2.50347 0.312933 0.244639 
295 1 8.4492 2.50347 0.312933 0.244639 
299 1 9.07507 2.50347 0.312933 0.244639 
244 1 0 2.8164 0.312933 0.244639 
248 1 0.625867 2.8164 0.312933 0.244639 
252 1 1.25173 2.8164 0.312933 0.244639 
256 1 1.8776 2.8164 0.312933 0.244639 
260 1 2.50347 2.8164 0.312933 0.244639 
264 1 3.12933 2.8164 0.312933 0.244639 
268 1 3.7552 2.8164 0.312933 0.244639 
272 1 4.38107 2.8164 0.312933 0.244639 
276 1 5.00693 2.8164 0.312933 0.244639 
280 1 5.6328 2.8164 0.312933 0.244639 
284 1 6.25867 2.8164 0.312933 0.244639 
288 1 6.88453 2.8164 0.312933 0.244639 
292 1 7.5104 2.8164 0.312933 0.244639 
296 1 8.13627 2.8164 0.312933 0.244639 
300 1 8.76213 2.8164 0.312933 0.244639 
303 1 0.312933 3.12933 0.312933 0.244639 
307 1 0.9388 3.12933 0.312933 0.244639 
311 1 1.56467 3.12933 0.312933 0.244639 
315 1 2.19053 3.12933 0.312933 0.244639 
319 1 2.8164 3.12933 0.312933 0.244639 
323 1 3.44227 3.12933 0.312933 0.244639 
327 1 4.06813 3.12933 0.312933 0.244639 
331 1 4.694 3.12933 0.312933 0.244639 
335 1 5.31987 3.12933 0.312933 0.244639 
339 1 5.94573 3.12933 0.312933 0.244639 
343 1 6.5716 3.12933 0.312933 0.244639 
347 1 7.19747 3.12933 0.312933 0.244639 
351 1 7.82333 3.12933 0.312933 0.244639 
355 1 8.4492 3.12933 0.312933 0.244639 
359 1 9.07507 3.12933 0.312933 0.244639 
304 1 0 3.44227 0.312933 0.244639 
308 1 0.625867 3.44227 0.312933 0.244639 
312 1 1.25173 3.44227 0.312933 0.244639 
316 1 1.8776 3.44227 0.312933 0.244639 
320 1 2.50347 3.44227 0.312933 0.244639 
324 1 3.12933 3.44227 0.312933 0.244639 
328 1 3.7552 3.44227 0.312933 0.244639 
332 1 4.38107 3.44227 0.312933 0.244639 
336 1 5.00693 3.44227 0.312933 0.244639 
340 1 5.6328 3.44227 0.312933 0.244639 
344 1 6.25867 3.44227 0.312933 0.244639 
348 1 6.88453 3.44227 0.312933 0.244639 
352 1 7.5104 3.44227 0.312933 0.244639 
356 1 8.13627 3.44227 0.312933 0.244639 
360 1 8.76213 3.44227 0.312933 0.244639 
361 1 0 0 0.625867 0.244639 
365 2 0.625867 0 0.625867 0.244639 
369 2 1.25173 0 0.625867 0.244639 
373 2 1.8776 0 0.625867 0.244639 
377 2 2.50347 0 0.625867 0.244639 
381 2 3.12933 0 0.625867 0.244639 
385 2 3.7552 0 0.625867 0.244639 
389 2 4.38107 0 0.625867 0.244639 
393 2 5.00693 0 0.625867 0.244639 
397 2 5.6328 0 0.625867 0.244639 
401 2 6.25867 0 0.625867 0.244639 
405 2 6.88453 0 0.625867 0.244639 
409 2 7.5104 0 0.625867 0.244639 
413 2 8.13627 0 0.625867 0.244639 
417 2 8.76213 0 0.625867 0.244639 
362 1 0.312933 0.312933 0.625867 0.244639 
366 2 0.9388 0.312933 0.625867 0.244639 
370 2 1.56467 0.312933 0.625867 0.244639 
374 2 2.19053 0.312933 0.625867 0.244639 
378 2 2.8164 0.312933 0.625867 0.244639 
382 2 3.44227 0.312933 0.625867 0.244639 
386 2 4.06813 0.312933 0.625867 0.244639 
390 2 4.694 0.312933 0.625867 0.244639 
394 2 5.31987 0.312933 0.625867 0.244639 
398 2 5.94573 0.312933 0.625867 0.244639 
402 2 6.5716 0.312933 0.625867 0.244639 
406 2 7.19747 0.312933 0.625867 0.244639 
410 2 7.82333 0.312933 0.625867 0.244639 
414 2 8.4492 0.312933 0.625867 0.244639 
418 1 9.07507 0.312933 0.625867 0.244639 
421 1 0 0.625867 0.625867 0.244639 
425 2 0.625867 0.625867 0.625867 0.244639 
429 2 1.25173 0.625867 0.625867 0.244639 
433 2 1.8776 0.625867 0.625867 0.244639 
437 2 2.50347 0.625867 0.625867 0.244639 
441 2 3.12933 0.625867 0.625867 0.244639 
445 2 3.7552 0.625867 0.625867 0.244639 
449 2 4.38107 0.625867 0.625867 0.244639 
453 2 5.00693 0.625867 0.625867 0.244639 
457 2 5.6328 0.625867 0.625867 0.244639 
461 2 6.25867 0.625867 0.625867 0.244639 
465 2 6.88453 0.625867 0.625867 0.244639 
469 2 7.5104 0.625867 0.625867 0.244639 
473 2 8.13627 0.625867 0.625867 0.244639 
477 2 8.76213 0.625867 0.625867 0.244639 
422 1 0.312933 0.9388 0.625867 0.244639 
426 2 0.9388 0.9388 0.625867 0.244639 
430 2 1.56467 0.9388 0.625867 0.244639 
434 2 2.19053 0.9388 0.625867 0.244639 
438 2 2.8164 0.9388 0.625867 0.244639 
442 2 3.44227 0.9388 0.625867 0.244639 
446 2 4.06813 0.9388 0.625867 0.244639 
450 2 4.694 0.9388 0.625867 0.244639 
454 2 5.31987 0.9388 0.625867 0.244639 
458 2 5.94573 0.9388 0.625867 0.244639 
462 2 6.5716 0.9388 0.625867 0.244639 
466 2 7.19747 0.9388 0.625867 0.244639 
470 2 7.82333 0.9388 0.625867 0.244639 
474 2 8.4492 0.9388 0.625867 0.244639 
478 1 9.07507 0.9388 0.625867 0.244639 
481 1 0 1.25173 0.625867 0.244639 
485 2 0.625867 1.25173 0.625867 0.244639 
489 2 1.25173 1.25173 0.625867 0.244639 
493 2 1.8776 1.25173 0.625867 0.244639 
497 2 2.50347 1.25173 0.625867 0.244639 
501 2 3.12933 1.25173 0.625867 0.244639 
505 2 3.7552 1.25173 0.625867 0.244639 
509 2 4.38107 1.25173 0.625867 0.244639 
513 2 5.00693 1.25173 0.625867 0.244639 
517 2 5.6328 1.25173 0.625867 0.244639 
521 2 6.25867 1.25173 0.625867 0.244639 
525 2 6.88453 1.25173 0.625867 0.244639 
529 2 7.5104 1.25173 0.625867 0.244639 
533 2 8.13627 1.25173 0.625867 0.244639 
537 2 8.76213 1.25173 0.625867 0.244639 
482 1 0.312933 1.56467 0.625867 0.244639 
486 2 0.9388 1.56467 0.625867 0.244639 
490 2 1.56467 1.56467 0.625867 0.244639 
494 2 2.19053 1.56467 0.625867 0.244639 
498 2 2.8164 1.56467 0.625867 0.244639 
502 2 3.44227 1.56467 0.625867 0.244639 
506 2 4.06813 1.56467 0.625867 0.244639 
510 2 4.694 1.56467 0.625867 0.244639 
514 2 5.31987 1.56467 0.625867 0.244639 
518 2 5.94573 1.56467 0.625867 0.244639 
522 2 6.5716 1.56467 0.625867 0.244639 
526 2 7.19747 1.56467 0.625867 0.244639 
530 2 7.82333 1.56467 0.625867 0.244639 
534 2 8.4492 1.56467 0.625867 0.244639 
538 1 9.07507 1.56467 0.625867 0.244639 
541 1 0 1.8776 0.625867 0.244639 
545 2 0.625867 1.8776 0.625867 0.244639 
549 2 1.25173 1.8776 0.625867 0.244639 
553 2 1.8776 1.8776 0.625867 0.244639 
557 2 2.50347 1.8776 0.625867 0.244639 
561 2 3.12933 1.8776 0.625867 0.244639 
565 2 3.7552 1.8776 0.625867 0.244639 
569 2 4.38107 1.8776 0.625867 0.244639 
573 2 5.00693 1.8776 0.625867 0.244639 
577 2 5.6328 1.8776 0.625867 0.244639 
581 2 6.25867 1.8776 0.625867 0.244639 
585 2 6.88453 1.8776 0.625867 0.244639 
589 2 7.5104 1.8776 0.625867 0.244639 
593 2 8.13627 1.8776 0.625867 0.244639 
597 2 8.76213 1.8776 0.625867 0.244639 
542 1 0.312933 2.19053 0.625867 0.244639 
546 2 0.9388 2.19053 0.625867 0.244639 
550 2 1.56467 2.19053 0.625867 0.244639 
554 2 2.19053 2.19053 0.625867 0.244639 
558 2 2.8164 2.19053 0.625867 0.244639 
562 2 3.44227 2.19053 0.625867 0.244639 
566 2 4.06813 2.19053 0.625867 0.244639 
570 2 4.694 2.19053 0.625867 0.244639 
574 2 5.31987 2.19053 0.625867 0.244639 
578 2 5.94573 2.19053 0.625867 0.244639 
582 2 6.5716 2.19053 0.625867 0.244639 
586 2 7.19747 2.19053 0.625867 0.244639 
590 2 7.82333 2.19053 0.625867 0.244639 
594 2 8.4492 2.19053 0.625867 0.244639 
598 1 9.07507 2.19053 0.625867 0.244639 
601 1 0 2.50347 0.625867 0.244639 
605 2 0.625867 2.50347 0.625867 0.244639 
609 2 1.25173 2.50347 0.625867 0.244639 
613 2 1.8776 2.50347 0.625867 0.244639 
617 2 2.50347 2.50347 0.625867 0.244639 
621 2 3.12933 2.50347 0.625867 0.244639 
625 2 3.7552 2.50347 0.625867 0.244639 
629 2 4.38107 2.50347 0.625867 0.244639 
633 2 5.00693 2.50347 0.625867 0.244639 
637 2 5.6328 2.50347 0.625867 0.244639 
641 2 6.25867 2.50347 0.625867 0.244639 
645 2 6.88453 2.50347 0.625867 0.244639 
649 2 7.5104 2.50347 0.625867 0.244639 
653 2 8.13627 2.50347 0.625867 0.244639 
657 2 8.76213 2.50347 0.625867 0.244639 
602 1 0.312933 2.8164 0.625867 0.244639 
606 2 0.9388 2.8164 0.625867 0.244639 
610 2 1.56467 2.8164 0.625867 0.244639 
614 2 2.19053 2.8164 0.625867 0.244639 
618 2 2.8164 2.8164 0.625867 0.244639 
622 2 3.44227 2.8164 0.625867 0.244639 
626 2 4.06813 2.8164 0.625867 0.244639 
630 2 4.694 2.8164 0.625867 0.244639 
634 2 5.31987 2.8164 0.625867 0.244639 
638 2 5.94573 2.8164 0.625867 0.244639 
642 2 6.5716 2.8164 0.625867 0.244639 
646 2 7.19747 2.8164 0.625867 0.244639 
650 2 7.82333 2.8164 0.625867 0.244639 
654 2 8.4492 2.8164 0.625867 0.244639 
658 1 9.07507 2.8164 0.625867 0.244639 
661 1 0 3.12933 0.625867 0.244639 
665 2 0.625867 3.12933 0.625867 0.244639 
669 2 1.25173 3.12933 0.625867 0.244639 
673 2 1.8776 3.12933 0.625867 0.244639 
677 2 2.50347 3.12933 0.625867 0.244639 
681 2 3.12933 3.12933 0.625867 0.244639 
685 2 3.7552 3.12933 0.625867 0.244639 
689 2 4.38107 3.12933 0.625867 0.244639 
693 2 5.00693 3.12933 0.625867 0.244639 
697 2 5.6328 3.12933 0.625867 0.244639 
701 2 6.25867 3.12933 0.625867 0.244639 
705 2 6.88453 3.12933 0.625867 0.244639 
709 2 7.5104 3.12933 0.625867 0.244639 
713 2 8.13627 3.12933 0.625867 0.244639 
717 2 8.76213 3.12933 0.625867 0.244639 
662 1 0.312933 3.44227 0.625867 0.244639 
666 2 0.9388 3.44227 0.625867 0.244639 
670 2 1.56467 3.44227 0.625867 0.244639 
674 2 2.19053 3.44227 0.625867 0.244639 
678 2 2.8164 3.44227 0.625867 0.244639 
682 2 3.44227 3.44227 0.625867 0.244639 
686 2 4.06813 3.44227 0.625867 0.244639 
690 2 4.694 3.44227 0.625867 0.244639 
694 2 5.31987 3.44227 0.625867 0.244639 
698 2 5.94573 3.44227 0.625867 0.244639 
702 2 6.5716 3.44227 0.625867 0.244639 
706 2 7.19747 3.44227 0.625867 0.244639 
710 2 7.82333 3.44227 0.625867 0.244639 
714 2 8.4492 3.44227 0.625867 0.244639 
718 1 9.07507 3.44227 0.625867 0.244639 
363 1 0.312933 0 0.9388 0.244639 
367 2 0.9388 0 0.9388 0.244639 
371 2 1.56467 0 0.9388 0.244639 
375 2 2.19053 0 0.9388 0.244639 
379 2 2.8164 0 0.9388 0.244639 
383 2 3.44227 0 0.9388 0.244639 
387 2 4.06813 0 0.9388 0.244639 
391 2 4.694 0 0.9388 0.244639 
395 2 5.31987 0 0.9388 0.244639 
399 2 5.94573 0 0.9388 0.244639 
403 2 6.5716 0 0.9388 0.244639 
407 2 7.19747 0 0.9388 0.244639 
411 2 7.82333 0 0.9388 0.244639 
415 2 8.4492 0 0.9388 0.244639 
419 1 9.07507 0 0.9388 0.244639 
364 1 0 0.312933 0.9388 0.244639 
368 2 0.625867 0.312933 0.9388 0.244639 
372 2 1.25173 0.312933 0.9388 0.244639 
376 2 1.8776 0.312933 0.9388 0.244639 
380 2 2.50347 0.312933 0.9388 0.244639 
384 2 3.12933 0.312933 0.9388 0.244639 
388 2 3.7552 0.312933 0.9388 0.244639 
392 2 4.38107 0.312933 0.9388 0.244639 
396 2 5.00693 0.312933 0.9388 0.244639 
400 2 5.6328 0.312933 0.9388 0.244639 
404 2 6.25867 0.312933 0.9388 0.244639 
408 2 6.88453 0.312933 0.9388 0.244639 
412 2 7.5104 0.312933 0.9388 0.244639 
416 2 8.13627 0.312933 0.9388 0.244639 
420 2 8.76213 0.312933 0.9388 0.244639 
423 1 0.312933 0.625867 0.9388 0.244639 
427 2 0.9388 0.625867 0.9388 0.244639 
431 2 1.56467 0.625867 0.9388 0.244639 
435 2 2.19053 0.625867 0.9388 0.244639 
439 2 2.8164 0.625867 0.9388 0.244639 
443 2 3.44227 0.625867 0.9388 0.244639 
447 2 4.06813 0.625867 0.9388 0.244639 
451 2 4.694 0.625867 0.9388 0.244639 
455 2 5.31987 0.625867 0.9388 0.244639 
459 2 5.94573 0.625867 0.9388 0.244639 
463 2 6.5716 0.625867 0.9388 0.244639 
467 2 7.19747 0.625867 0.9388 0.244639 
471 2 7.82333 0.625867 0.9388 0.244639 
475 2 8.4492 0.625867 0.9388 0.244639 
479 1 9.07507 0.625867 0.9388 0.244639 
424 1 0 0.9388 0.9388 0.244639 
428 2 0.625867 0.9388 0.9388 0.244639 
432 2 1.25173 0.9388 0.9388 0.244639 
436 2 1.8776 0.9388 0.9388 0.244639 
440 2 2.50347 0.9388 0.9388 0.244639 
444 2 3.12933 0.9388 0.9388 0.244639 
448 2 3.7552 0.9388 0.9388 0.244639 
452 2 4.38107 0.9388 0.9388 0.244639 
456 2 5.00693 0.9388 0.9388 0.244639 
460 2 5.6328 0.9388 0.9388 0.244639 
464 2 6.25867 0.9388 0.9388 0.244639 
468 2 6.88453 0.9388 0.9388 0.244639 
472 2 7.5104 0.9388 0.9388 0.244639 
476 2 8.13627 0.9388 0.9388 0.244639 
480 2 8.76213 0.9388 0.9388 0.244639 
483 1 0.312933 1.25173 0.9388 0.244639 
487 2 0.9388 1.25173 0.9388 0.244639 
491 2 1.56467 1.25173 0.9388 0.244639 
495 2 2.19053 1.25173 0.9388 0.244639 
499 2 2.8164 1.25173 0.9388 0.244639 
503 2 3.44227 1.25173 0.9388 0.244639 
507 2 4.06813 1.25173 0.9388 0.244639 
511 2 4.694 1.25173 0.9388 0.244639 
515 2 5.31987 1.25173 0.9388 0.244639 
519 2 5.94573 1.25173 0.9388 0.244639 
523 2 6.5716 1.25173 0.9388 0.244639 
527 2 7.19747 1.25173 0.9388 0.244639 
531 2 7.82333 1.25173 0.9388 0.244639 
535 2 8.4492 1.25173 0.9388 0.244639 
539 1 9.07507 1.25173 0.9388 0.244639 
484 1 0 1.56467 0.9388 0.244639 
488 2 0.625867 1.56467 0.9388 0.244639 
492 2 1.25173 1.56467 0.9388 0.244639 
496 2 1.8776 1.56467 0.9388 0.244639 
500 2 2.50347 1.56467 0.9388 0.244639 
504 2 3.12933 1.56467 0.9388 0.244639 
508 2 3.7552 1.56467 0.9388 0.244639 
512 2 4.38107 1.56467 0.9388 0.244639 
516 2 5.00693 1.56467 0.9388 0.244639 
520 2 5.6328 1.56467 0.9388 0.244639 
524 2 6.25867 1.56467 0.9388 0.244639 
528 2 6.88453 1.56467 0.9388 0.244639 
532 2 7.5104 1.56467 0.9388 0.244639 
536 2 8.13627 1.56467 0.9388 0.244639 
540 2 8.76213 1.56467 0.9388 0.244639 
543 1 0.312933 1.8776 0.9388 0.244639 
547 2 0.9388 1.8776 0.9388 0.244639 
551 2 1.56467 1.8776 0.9388 0.244639 
555 2 2.19053 1.8776 0.9388 0.244639 
559 2 2.8164 1.8776 0.9388 0.244639 
563 2 3.44227 1.8776 0.9388 0.244639 
567 2 4.06813 1.8776 0.9388 0.244639 
571 2 4.694 1.8776 0.9388 0.244639 
575 2 5.31987 1.8776 0.9388 0.244639 
579 2 5.94573 1.8776 0.9388 0.244639 
583 2 6.5716 1.8776 0.9388 0.244639 
587 2 7.19747 1.8776 0.9388 0.244639 
591 2 7.82333 1.8776 0.9388 0.244639 
595 2 8.4492 1.8776 0.9388 0.244639 
599 1 9.07507 1.8776 0.9388 0.244639 
544 1 0 2.19053 0.9388 0.244639 
548 2 0.625867 2.19053 0.9388 0.244639 
552 2 1.25173 2.19053 0.9388 0.244639 
556 2 1.8776 2.19053 0.9388 0.244639 
560 2 2.50347 2.19053 0.9388 0.244639 
564 2 3.12933 2.19053 0.9388 0.244639 
568 2 3.7552 2.19053 0.9388 0.244639 
572 2 4.38107 2.19053 0.9388 0.244639 
576 2 5.00693 2.19053 0.9388 0.244639 
580 2 5.6328 2.19053 0.9388 0.244639 
584 2 6.25867 2.19053 0.9388 0.244639 
588 2 6.88453 2.19053 0.9388 0.244639 
592 2 7.5104 2.19053 0.9388 0.244639 
596 2 8.13627 2.19053 0.9388 0.244639 
600 2 8.76213 2.19053 0.9388 0.244639 
603 1 0.312933 2.50347 0.9388 0.244639 
607 2 0.9388 2.50347 0.9388 0.244639 
611 2 1.56467 2.50347 0.9388 0.244639 
615 2 2.19053 2.50347 0.9388 0.244639 
619 2 2.8164 2.50347 0.9388 0.244639 
623 2 3.44227 2.50347 0.9388 0.244639 
627 2 4.06813 2.50347 0.9388 0.244639 
631 2 4.694 2.50347 0.9388 0.244639 
635 2 5.31987 2.50347 0.9388 0.244639 
639 2 5.94573 2.50347 0.9388 0.244639 
643 2 6.5716 2.50347 0.9388 0.244639 
647 2 7.19747 2.50347 0.9388 0.244639 
651 2 7.82333 2.50347 0.9388 0.244639 
655 2 8.4492 2.50347 0.9388 0.244639 
659 1 9.07507 2.50347 0.9388 0.244639 
604 1 0 2.8164 0.9388 0.244639 
608 2 0.625867 2.8164 0.9388 0.244639 
612 2 1.25173 2.8164 0.9388 0.244639 
616 2 1.8776 2.8164 0.9388 0.244639 
620 2 2.50347 2.8164 0.9388 0.244639 
624 2 3.12933 2.8164 0.9388 0.244639 
628 2 3.7552 2.8164 0.9388 0.244639 
632 2 4.38107 2.8164 0.9388 0.244639 
636 2 5.00693 2.8164 0.9388 0.244639 
640 2 5.6328 2.8164 0.9388 0.244639 
644 2 6.25867 2.8164 0.9388 0.244639 
648 2 6.88453 2.8164 0.9388 0.244639 
652 2 7.5104 2.8164 0.9388 0.244639 
656 2 8.13627 2.8164 0.9388 0.244639 
660 2 8.76213 2.8164 0.9388 0.244639 
663 1 0.312933 3.12933 0.9388 0.244639 
667 2 0.9388 3.12933 0.9388 0.244639 
671 2 1.56467 3.12933 0.9388 0.244639 
675 2 2.19053 3.12933 0.9388 0.244639 
679 2 2.8164 3.12933 0.9388 0.244639 
683 2 3.44227 3.12933 0.9388 0.244639 
687 2 4.06813 3.12933 0.9388 0.244639 
691 2 4.694 3.12933 0.9388 0.244639 
695 2 5.31987 3.12933 0.9388 0.244639 
699 2 5.94573 3.12933 0.9388 0.244639 
703 2 6.5716 3.12933 0.9388 0.244639 
707 2 7.19747 3.12933 0.9388 0.244639 
711 2 7.82333 3.12933 0.9388 0.244639 
715 2 8.4492 3.12933 0.9388 0.244639 
719 1 9.07507 3.12933 0.9388 0.244639 
664 1 0 3.44227 0.9388 0.244639 
668 2 0.625867 3.44227 0.9388 0.244639 
672 2 1.25173 3.44227 0.9388 0.244639 
676 2 1.8776 3.44227 0.9388 0.244639 
680 2 2.50347 3.44227 0.9388 0.244639 
684 2 3.12933 3.44227 0.9388 0.244639 
688 2 3.7552 3.44227 0.9388 0.244639 
692 2 4.38107 3.44227 0.9388 0.244639 
696 2 5.00693 3.44227 0.9388 0.244639 
700 2 5.6328 3.44227 0.9388 0.244639 
704 2 6.25867 3.44227 0.9388 0.244639 
708 2 6.88453 3.44227 0.9388 0.244639 
712 2 7.5104 3.44227 0.9388 0.244639 
716 2 8.13627 3.44227 0.9388 0.244639 
720 2 8.76213 3.44227 0.9388 0.244639 
721 1 0 0 1.25173 0.244639 
725 2 0.625867 0 1.25173 0.244639 
729 2 1.25173 0 1.25173 0.244639 
733 2 1.8776 0 1.25173 0.244639 
737 2 2.50347 0 1.25173 0.244639 
741 2 3.12933 0 1.25173 0.244639 
745 2 3.7552 0 1.25173 0.244639 
749 2 4.38107 0 1.25173 0.244639 
753 2 5.00693 0 1.25173 0.244639 
757 2 5.6328 0 1.25173 0.244639 
761 2 6.25867 0 1.25173 0.244639 
765 2 6.88453 0 1.25173 0.244639 
769 2 7.5104 0 1.25173 0.244639 
773 2 8.13627 0 1.25173 0.244639 
777 2 8.76213 0 1.25173 0.244639 
722 1 0.312933 0.312933 1.25173 0.244639 
726 2 0.9388 0.312933 1.25173 0.244639 
730 2 1.56467 0.312933 1.25173 0.244639 
734 2 2.19053 0.312933 1.25173 0.244639 
738 2 2.8164 0.312933 1.25173 0.244639 
742 2 3.44227 0.312933 1.25173 0.244639 
746 2 4.06813 0.312933 1.25173 0.244639 
750 2 4.694 0.312933 1.25173 0.244639 
754 2 5.31987 0.312933 1.25173 0.244639 
758 2 5.94573 0.312933 1.25173 0.244639 
762 2 6.5716 0.312933 1.25173 0.244639 
766 2 7.19747 0.312933 1.25173 0.244639 
770 2 7.82333 0.312933 1.25173 0.244639 
774 2 8.4492 0.312933 1.25173 0.244639 
778 1 9.07507 0.312933 1.25173 0.244639 
781 1 0 0.625867 1.25173 0.244639 
785 2 0.625867 0.625867 1.25173 0.244639 
789 2 1.25173 0.625867 1.25173 0.244639 
793 2 1.8776 0.625867 1.25173 0.244639 
797 2 2.50347 0.625867 1.25173 0.244639 
801 2 3.12933 0.625867 1.25173 0.244639 
805 2 3.7552 0.625867 1.25173 0.244639 
809 2 4.38107 0.625867 1.25173 0.244639 
813 2 5.00693 0.625867 1.25173 0.244639 
817 2 5.6328 0.625867 1.25173 0.244639 
821 2 6.25867 0.625867 1.25173 0.244639 
825 2 6.88453 0.625867 1.25173 0.244639 
829 2 7.5104 0.625867 1.25173 0.244639 
833 2 8.13627 0.625867 1.25173 0.244639 
837 2 8.76213 0.625867 1.25173 0.244639 
782 1 0.312933 0.9388 1.25173 0.244639 
786 2 0.9388 0.9388 1.25173 0.244639 
790 2 1.56467 0.9388 1.25173 0.244639 
794 2 2.19053 0.9388 1.25173 0.244639 
798 2 2.8164 0.9388 1.25173 0.244639 
802 2 3.44227 0.9388 1.25173 0.244639 
806 2 4.06813 0.9388 1.25173 0.244639 
810 2 4.694 0.9388 1.25173 0.244639 
814 2 5.31987 0.9388 1.25173 0.244639 
818 2 5.94573 0.9388 1.25173 0.244639 
822 2 6.5716 0.9388 1.25173 0.244639 
826 2 7.19747 0.9388 1.25173 0.244639 
830 2 7.82333 0.9388 1.25173 0.244639 
834 2 8.4492 0.9388 1.25173 0.244639 
838 1 9.07507 0.9388 1.25173 0.244639 
841 1 0 1.25173 1.25173 0.244639 
845 2 0.625867 1.25173 1.25173 0.244639 
849 2 1.25173 1.25173 1.25173 0.244639 
853 2 1.8776 1.25173 1.25173 0.244639 
857 2 2.50347 1.25173 1.25173 0.244639 
861 2 3.12933 1.25173 1.25173 0.244639 
865 2 3.7552 1.25173 1.25173 0.244639 
869 2 4.38107 1.25173 1.25173 0.244639 
873 2 5.00693 1.25173 1.25173 0.244639 
877 2 5.6328 1.25173 1.25173 0.244639 