ITEM: TIMESTEP
0
ITEM: NUMBER OF ATOMS
966
ITEM: BOX BOUNDS pp ff ff
0.0000000000000000e+00 1.8775997409836201e+01
0.0000000000000000e+00 3.7551994819672401e+00
0.0000000000000000e+00 2.5034663213115000e+00
ITEM: ATOMS id type x y z radius 
1 1 0 0 0 0.244639 
3 1 0.312933 0 0.312933 0.244639 
5 1 0.625867 0 0 0.244639 
7 1 0.9388 0 0.312933 0.244639 
9 1 1.25173 0 0 0.244639 
11 1 1.56467 0 0.312933 0.244639 
13 1 1.8776 0 0 0.244639 
15 1 2.19053 0 0.312933 0.244639 
17 1 2.50347 0 0 0.244639 
19 1 2.8164 0 0.312933 0.244639 
21 1 3.12933 0 0 0.244639 
23 1 3.44227 0 0.312933 0.244639 
25 1 3.7552 0 0 0.244639 
27 1 4.06813 0 0.312933 0.244639 
29 1 4.38107 0 0 0.244639 
31 1 4.694 0 0.312933 0.244639 
33 1 5.00693 0 0 0.244639 
35 1 5.31987 0 0.312933 0.244639 
37 1 5.6328 0 0 0.244639 
39 1 5.94573 0 0.312933 0.244639 
41 1 6.25867 0 0 0.244639 
43 1 6.5716 0 0.312933 0.244639 
45 1 6.88453 0 0 0.244639 
47 1 7.19747 0 0.312933 0.244639 
49 1 7.5104 0 0 0.244639 
51 1 7.82333 0 0.312933 0.244639 
53 1 8.13627 0 0 0.244639 
55 1 8.4492 0 0.312933 0.244639 
57 1 8.76213 0 0 0.244639 
59 1 9.07507 0 0.312933 0.244639 
61 1 9.388 0 0 0.244639 
63 1 9.70093 0 0.312933 0.244639 
65 1 10.0139 0 0 0.244639 
67 1 10.3268 0 0.312933 0.244639 
69 1 10.6397 0 0 0.244639 
71 1 10.9527 0 0.312933 0.244639 
73 1 11.2656 0 0 0.244639 
75 1 11.5785 0 0.312933 0.244639 
77 1 11.8915 0 0 0.244639 
79 1 12.2044 0 0.312933 0.244639 
81 1 12.5173 0 0 0.244639 
83 1 12.8303 0 0.312933 0.244639 
85 1 13.1432 0 0 0.244639 
87 1 13.4561 0 0.312933 0.244639 
89 1 13.7691 0 0 0.244639 
91 1 14.082 0 0.312933 0.244639 
93 1 14.3949 0 0 0.244639 
95 1 14.7079 0 0.312933 0.244639 
97 1 15.0208 0 0 0.244639 
99 1 15.3337 0 0.312933 0.244639 
101 1 15.6467 0 0 0.244639 
103 1 15.9596 0 0.312933 0.244639 
105 1 16.2725 0 0 0.244639 
107 1 16.5855 0 0.312933 0.244639 
109 1 16.8984 0 0 0.244639 
111 1 17.2113 0 0.312933 0.244639 
113 1 17.5243 0 0 0.244639 
115 1 17.8372 0 0.312933 0.244639 
117 1 18.1501 0 0 0.244639 
119 1 18.4631 0 0.312933 0.244639 
4 1 0 0.312933 0.312933 0.244639 
2 1 0.312933 0.312933 0 0.244639 
8 1 0.625867 0.312933 0.312933 0.244639 
6 1 0.9388 0.312933 0 0.244639 
12 1 1.25173 0.312933 0.312933 0.244639 
10 1 1.56467 0.312933 0 0.244639 
16 1 1.8776 0.312933 0.312933 0.244639 
14 1 2.19053 0.312933 0 0.244639 
20 1 2.50347 0.312933 0.312933 0.244639 
18 1 2.8164 0.312933 0 0.244639 
24 1 3.12933 0.312933 0.312933 0.244639 
22 1 3.44227 0.312933 0 0.244639 
28 1 3.7552 0.312933 0.312933 0.244639 
26 1 4.06813 0.312933 0 0.244639 
32 1 4.38107 0.312933 0.312933 0.244639 
30 1 4.694 0.312933 0 0.244639 
36 1 5.00693 0.312933 0.312933 0.244639 
34 1 5.31987 0.312933 0 0.244639 
40 1 5.6328 0.312933 0.312933 0.244639 
38 1 5.94573 0.312933 0 0.244639 
44 1 6.25867 0.312933 0.312933 0.244639 
42 1 6.5716 0.312933 0 0.244639 
48 1 6.88453 0.312933 0.312933 0.244639 
46 1 7.19747 0.312933 0 0.244639 
52 1 7.5104 0.312933 0.312933 0.244639 
50 1 7.82333 0.312933 0 0.244639 
56 1 8.13627 0.312933 0.312933 0.244639 
54 1 8.4492 0.312933 0 0.244639 
60 1 8.76213 0.312933 0.312933 0.244639 
58 1 9.07507 0.312933 0 0.244639 
64 1 9.388 0.312933 0.312933 0.244639 
62 1 9.70093 0.312933 0 0.244639 
68 1 10.0139 0.312933 0.312933 0.244639 
66 1 10.3268 0.312933 0 0.244639 
72 1 10.6397 0.312933 0.312933 0.244639 
70 1 10.9527 0.312933 0 0.244639 
76 1 11.2656 0.312933 0.312933 0.244639 
74 1 11.5785 0.312933 0 0.244639 
80 1 11.8915 0.312933 0.312933 0.244639 
78 1 12.2044 0.312933 0 0.244639 
84 1 12.5173 0.312933 0.312933 0.244639 
82 1 12.8303 0.312933 0 0.244639 
88 1 13.1432 0.312933 0.312933 0.244639 
86 1 13.4561 0.312933 0 0.244639 
92 1 13.7691 0.312933 0.312933 0.244639 
90 1 14.082 0.312933 0 0.244639 
96 1 14.3949 0.312933 0.312933 0.244639 
94 1 14.7079 0.312933 0 0.244639 
100 1 15.0208 0.312933 0.312933 0.244639 
98 1 15.3337 0.312933 0 0.244639 
104 1 15.6467 0.312933 0.312933 0.244639 
102 1 15.9596 0.312933 0 0.244639 
108 1 16.2725 0.312933 0.312933 0.244639 
106 1 16.5855 0.312933 0 0.244639 
112 1 16.8984 0.312933 0.312933 0.244639 
110 1 17.2113 0.312933 0 0.244639 
116 1 17.5243 0.312933 0.312933 0.244639 
114 1 17.8372 0.312933 0 0.244639 
120 1 18.1501 0.312933 0.312933 0.244639 
118 1 18.4631 0.312933 0 0.244639 
121 1 0 0.625867 0 0.244639 
123 1 0.312933 0.625867 0.312933 0.244639 
125 1 0.625867 0.625867 0 0.244639 
127 1 0.9388 0.625867 0.312933 0.244639 
129 1 1.25173 0.625867 0 0.244639 
131 1 1.56467 0.625867 0.312933 0.244639 
133 1 1.8776 0.625867 0 0.244639 
135 1 2.19053 0.625867 0.312933 0.244639 
137 1 2.50347 0.625867 0 0.244639 
139 1 2.8164 0.625867 0.312933 0.244639 
141 1 3.12933 0.625867 0 0.244639 
143 1 3.44227 0.625867 0.312933 0.244639 
145 1 3.7552 0.625867 0 0.244639 
147 1 4.06813 0.625867 0.312933 0.244639 
149 1 4.38107 0.625867 0 0.244639 
151 1 4.694 0.625867 0.312933 0.244639 
153 1 5.00693 0.625867 0 0.244639 
155 1 5.31987 0.625867 0.312933 0.244639 
157 1 5.6328 0.625867 0 0.244639 
159 1 5.94573 0.625867 0.312933 0.244639 
161 1 6.25867 0.625867 0 0.244639 
163 1 6.5716 0.625867 0.312933 0.244639 
165 1 6.88453 0.625867 0 0.244639 
167 1 7.19747 0.625867 0.312933 0.244639 
169 1 7.5104 0.625867 0 0.244639 
171 1 7.82333 0.625867 0.312933 0.244639 
173 1 8.13627 0.625867 0 0.244639 
175 1 8.4492 0.625867 0.312933 0.244639 
177 1 8.76213 0.625867 0 0.244639 
179 1 9.07507 0.625867 0.312933 0.244639 
181 1 9.388 0.625867 0 0.244639 
183 1 9.70093 0.625867 0.312933 0.244639 
185 1 10.0139 0.625867 0 0.244639 
187 1 10.3268 0.625867 0.312933 0.244639 
189 1 10.6397 0.625867 0 0.244639 
191 1 10.9527 0.625867 0.312933 0.244639 
193 1 11.2656 0.625867 0 0.244639 
195 1 11.5785 0.625867 0.312933 0.244639 
197 1 11.8915 0.625867 0 0.244639 
199 1 12.2044 0.625867 0.312933 0.244639 
201 1 12.5173 0.625867 0 0.244639 
203 1 12.8303 0.625867 0.312933 0.244639 
205 1 13.1432 0.625867 0 0.244639 
207 1 13.4561 0.625867 0.312933 0.244639 
209 1 13.7691 0.625867 0 0.244639 
211 1 14.082 0.625867 0.312933 0.244639 
213 1 14.3949 0.625867 0 0.244639 
215 1 14.7079 0.625867 0.312933 0.244639 
217 1 15.0208 0.625867 0 0.244639 
219 1 15.3337 0.625867 0.312933 0.244639 
221 1 15.6467 0.625867 0 0.244639 
223 1 15.9596 0.625867 0.312933 0.244639 
225 1 16.2725 0.625867 0 0.244639 
227 1 16.5855 0.625867 0.312933 0.244639 
229 1 16.8984 0.625867 0 0.244639 
231 1 17.2113 0.625867 0.312933 0.244639 
233 1 17.5243 0.625867 0 0.244639 
235 1 17.8372 0.625867 0.312933 0.244639 
237 1 18.1501 0.625867 0 0.244639 
239 1 18.4631 0.625867 0.312933 0.244639 
124 1 0 0.9388 0.312933 0.244639 
122 1 0.312933 0.9388 0 0.244639 
128 1 0.625867 0.9388 0.312933 0.244639 
126 1 0.9388 0.9388 0 0.244639 
132 1 1.25173 0.9388 0.312933 0.244639 
130 1 1.56467 0.9388 0 0.244639 
136 1 1.8776 0.9388 0.312933 0.244639 
134 1 2.19053 0.9388 0 0.244639 
140 1 2.50347 0.9388 0.312933 0.244639 
138 1 2.8164 0.9388 0 0.244639 
144 1 3.12933 0.9388 0.312933 0.244639 
142 1 3.44227 0.9388 0 0.244639 
148 1 3.7552 0.9388 0.312933 0.244639 
146 1 4.06813 0.9388 0 0.244639 
152 1 4.38107 0.9388 0.312933 0.244639 
150 1 4.694 0.9388 0 0.244639 
156 1 5.00693 0.9388 0.312933 0.244639 
154 1 5.31987 0.9388 0 0.244639 
160 1 5.6328 0.9388 0.312933 0.244639 
158 1 5.94573 0.9388 0 0.244639 
164 1 6.25867 0.9388 0.312933 0.244639 
162 1 6.5716 0.9388 0 0.244639 
168 1 6.88453 0.9388 0.312933 0.244639 
166 1 7.19747 0.9388 0 0.244639 
172 1 7.5104 0.9388 0.312933 0.244639 
170 1 7.82333 0.9388 0 0.244639 
176 1 8.13627 0.9388 0.312933 0.244639 
174 1 8.4492 0.9388 0 0.244639 
180 1 8.76213 0.9388 0.312933 0.244639 
178 1 9.07507 0.9388 0 0.244639 
184 1 9.388 0.9388 0.312933 0.244639 
182 1 9.70093 0.9388 0 0.244639 
188 1 10.0139 0.9388 0.312933 0.244639 
186 1 10.3268 0.9388 0 0.244639 
192 1 10.6397 0.9388 0.312933 0.244639 
190 1 10.9527 0.9388 0 0.244639 
196 1 11.2656 0.9388 0.312933 0.244639 
194 1 11.5785 0.9388 0 0.244639 
200 1 11.8915 0.9388 0.312933 0.244639 
198 1 12.2044 0.9388 0 0.244639 
204 1 12.5173 0.9388 0.312933 0.244639 
202 1 12.8303 0.9388 0 0.244639 
208 1 13.1432 0.9388 0.312933 0.244639 
206 1 13.4561 0.9388 0 0.244639 
212 1 13.7691 0.9388 0.312933 0.244639 
210 1 14.082 0.9388 0 0.244639 
216 1 14.3949 0.9388 0.312933 0.244639 
214 1 14.7079 0.9388 0 0.244639 
220 1 15.0208 0.9388 0.312933 0.244639 
218 1 15.3337 0.9388 0 0.244639 
224 1 15.6467 0.9388 0.312933 0.244639 
222 1 15.9596 0.9388 0 0.244639 
228 1 16.2725 0.9388 0.312933 0.244639 
226 1 16.5855 0.9388 0 0.244639 
232 1 16.8984 0.9388 0.312933 0.244639 
230 1 17.2113 0.9388 0 0.244639 
236 1 17.5243 0.9388 0.312933 0.244639 
234 1 17.8372 0.9388 0 0.244639 
240 1 18.1501 0.9388 0.312933 0.244639 
238 1 18.4631 0.9388 0 0.244639 
241 1 0 1.25173 0 0.244639 
243 1 0.312933 1.25173 0.312933 0.244639 
245 1 0.625867 1.25173 0 0.244639 
247 1 0.9388 1.25173 0.312933 0.244639 
249 1 1.25173 1.25173 0 0.244639 
251 1 1.56467 1.25173 0.312933 0.244639 
253 1 1.8776 1.25173 0 0.244639 
255 1 2.19053 1.25173 0.312933 0.244639 
257 1 2.50347 1.25173 0 0.244639 
259 1 2.8164 1.25173 0.312933 0.244639 
261 1 3.12933 1.25173 0 0.244639 
263 1 3.44227 1.25173 0.312933 0.244639 
265 1 3.7552 1.25173 0 0.244639 
267 1 4.06813 1.25173 0.312933 0.244639 
269 1 4.38107 1.25173 0 0.244639 
271 1 4.694 1.25173 0.312933 0.244639 
273 1 5.00693 1.25173 0 0.244639 
275 1 5.31987 1.25173 0.312933 0.244639 
277 1 5.6328 1.25173 0 0.244639 
279 1 5.94573 1.25173 0.312933 0.244639 
281 1 6.25867 1.25173 0 0.244639 
283 1 6.5716 1.25173 0.312933 0.244639 
285 1 6.88453 1.25173 0 0.244639 
287 1 7.19747 1.25173 0.312933 0.244639 
289 1 7.5104 1.25173 0 0.244639 
291 1 7.82333 1.25173 0.312933 0.244639 
293 1 8.13627 1.25173 0 0.244639 
295 1 8.4492 1.25173 0.312933 0.244639 
297 1 8.76213 1.25173 0 0.244639 
299 1 9.07507 1.25173 0.312933 0.244639 
301 1 9.388 1.25173 0 0.244639 
303 1 9.70093 1.25173 0.312933 0.244639 
305 1 10.0139 1.25173 0 0.244639 
307 1 10.3268 1.25173 0.312933 0.244639 
309 1 10.6397 1.25173 0 0.244639 
311 1 10.9527 1.25173 0.312933 0.244639 
313 1 11.2656 1.25173 0 0.244639 
315 1 11.5785 1.25173 0.312933 0.244639 
317 1 11.8915 1.25173 0 0.244639 
319 1 12.2044 1.25173 0.312933 0.244639 
321 1 12.5173 1.25173 0 0.244639 
323 1 12.8303 1.25173 0.312933 0.244639 
325 1 13.1432 1.25173 0 0.244639 
327 1 13.4561 1.25173 0.312933 0.244639 
329 1 13.7691 1.25173 0 0.244639 
331 1 14.082 1.25173 0.312933 0.244639 
333 1 14.3949 1.25173 0 0.244639 
335 1 14.7079 1.25173 0.312933 0.244639 
337 1 15.0208 1.25173 0 0.244639 
339 1 15.3337 1.25173 0.312933 0.244639 
341 1 15.6467 1.25173 0 0.244639 
343 1 15.9596 1.25173 0.312933 0.244639 
345 1 16.2725 1.25173 0 0.244639 
347 1 16.5855 1.25173 0.312933 0.244639 
349 1 16.8984 1.25173 0 0.244639 
351 1 17.2113 1.25173 0.312933 0.244639 
353 1 17.5243 1.25173 0 0.244639 
355 1 17.8372 1.25173 0.312933 0.244639 
357 1 18.1501 1.25173 0 0.244639 
359 1 18.4631 1.25173 0.312933 0.244639 
244 1 0 1.56467 0.312933 0.244639 
242 1 0.312933 1.56467 0 0.244639 
248 1 0.625867 1.56467 0.312933 0.244639 
246 1 0.9388 1.56467 0 0.244639 
252 1 1.25173 1.56467 0.312933 0.244639 
250 1 1.56467 1.56467 0 0.244639 
256 1 1.8776 1.56467 0.312933 0.244639 
254 1 2.19053 1.56467 0 0.244639 
260 1 2.50347 1.56467 0.312933 0.244639 
258 1 2.8164 1.56467 0 0.244639 
264 1 3.12933 1.56467 0.312933 0.244639 
262 1 3.44227 1.56467 0 0.244639 
268 1 3.7552 1.56467 0.312933 0.244639 
266 1 4.06813 1.56467 0 0.244639 
272 1 4.38107 1.56467 0.312933 0.244639 
270 1 4.694 1.56467 0 0.244639 
276 1 5.00693 1.56467 0.312933 0.244639 
274 1 5.31987 1.56467 0 0.244639 
280 1 5.6328 1.56467 0.312933 0.244639 
278 1 5.94573 1.56467 0 0.244639 
284 1 6.25867 1.56467 0.312933 0.244639 
282 1 6.5716 1.56467 0 0.244639 
288 1 6.88453 1.56467 0.312933 0.244639 
286 1 7.19747 1.56467 0 0.244639 
292 1 7.5104 1.56467 0.312933 0.244639 
290 1 7.82333 1.56467 0 0.244639 
296 1 8.13627 1.56467 0.312933 0.244639 
294 1 8.4492 1.56467 0 0.244639 
300 1 8.76213 1.56467 0.312933 0.244639 
298 1 9.07507 1.56467 0 0.244639 
304 1 9.388 1.56467 0.312933 0.244639 
302 1 9.70093 1.56467 0 0.244639 
308 1 10.0139 1.56467 0.312933 0.244639 
306 1 10.3268 1.56467 0 0.244639 
312 1 10.6397 1.56467 0.312933 0.244639 
310 1 10.9527 1.56467 0 0.244639 
316 1 11.2656 1.56467 0.312933 0.244639 
314 1 11.5785 1.56467 0 0.244639 
320 1 11.8915 1.56467 0.312933 0.244639 
318 1 12.2044 1.56467 0 0.244639 
324 1 12.5173 1.56467 0.312933 0.244639 
322 1 12.8303 1.56467 0 0.244639 
328 1 13.1432 1.56467 0.312933 0.244639 
326 1 13.4561 1.56467 0 0.244639 
332 1 13.7691 1.56467 0.312933 0.244639 
330 1 14.082 1.56467 0 0.244639 
336 1 14.3949 1.56467 0.312933 0.244639 
334 1 14.7079 1.56467 0 0.244639 
340 1 15.0208 1.56467 0.312933 0.244639 
338 1 15.3337 1.56467 0 0.244639 
344 1 15.6467 1.56467 0.312933 0.244639 
342 1 15.9596 1.56467 0 0.244639 
348 1 16.2725 1.56467 0.312933 0.244639 
346 1 16.5855 1.56467 0 0.244639 
352 1 16.8984 1.56467 0.312933 0.244639 
350 1 17.2113 1.56467 0 0.244639 
356 1 17.5243 1.56467 0.312933 0.244639 
354 1 17.8372 1.56467 0 0.244639 
360 1 18.1501 1.56467 0.312933 0.244639 
358 1 18.4631 1.56467 0 0.244639 
361 1 0 1.8776 0 0.244639 
363 1 0.312933 1.8776 0.312933 0.244639 
365 1 0.625867 1.8776 0 0.244639 
367 1 0.9388 1.8776 0.312933 0.244639 
369 1 1.25173 1.8776 0 0.244639 
371 1 1.56467 1.8776 0.312933 0.244639 
373 1 1.8776 1.8776 0 0.244639 
375 1 2.19053 1.8776 0.312933 0.244639 
377 1 2.50347 1.8776 0 0.244639 
379 1 2.8164 1.8776 0.312933 0.244639 
381 1 3.12933 1.8776 0 0.244639 
383 1 3.44227 1.8776 0.312933 0.244639 
385 1 3.7552 1.8776 0 0.244639 
387 1 4.06813 1.8776 0.312933 0.244639 
389 1 4.38107 1.8776 0 0.244639 
391 1 4.694 1.8776 0.312933 0.244639 
393 1 5.00693 1.8776 0 0.244639 
395 1 5.31987 1.8776 0.312933 0.244639 
397 1 5.6328 1.8776 0 0.244639 
399 1 5.94573 1.8776 0.312933 0.244639 
401 1 6.25867 1.8776 0 0.244639 
403 1 6.5716 1.8776 0.312933 0.244639 
405 1 6.88453 1.8776 0 0.244639 
407 1 7.19747 1.8776 0.312933 0.244639 
409 1 7.5104 1.8776 0 0.244639 
411 1 7.82333 1.8776 0.312933 0.244639 
413 1 8.13627 1.8776 0 0.244639 
415 1 8.4492 1.8776 0.312933 0.244639 
417 1 8.76213 1.8776 0 0.244639 
419 1 9.07507 1.8776 0.312933 0.244639 
421 1 9.388 1.8776 0 0.244639 
423 1 9.70093 1.8776 0.312933 0.244639 
425 1 10.0139 1.8776 0 0.244639 
427 1 10.3268 1.8776 0.312933 0.244639 
429 1 10.6397 1.8776 0 0.244639 
431 1 10.9527 1.8776 0.312933 0.244639 
433 1 11.2656 1.8776 0 0.244639 
435 1 11.5785 1.8776 0.312933 0.244639 
437 1 11.8915 1.8776 0 0.244639 
439 1 12.2044 1.8776 0.312933 0.244639 
441 1 12.5173 1.8776 0 0.244639 
443 1 12.8303 1.8776 0.312933 0.244639 
445 1 13.1432 1.8776 0 0.244639 
447 1 13.4561 1.8776 0.312933 0.244639 
449 1 13.7691 1.8776 0 0.244639 
451 1 14.082 1.8776 0.312933 0.244639 
453 1 14.3949 1.8776 0 0.244639 
455 1 14.7079 1.8776 0.312933 0.244639 
457 1 15.0208 1.8776 0 0.244639 
459 1 15.3337 1.8776 0.312933 0.244639 
461 1 15.6467 1.8776 0 0.244639 
463 1 15.9596 1.8776 0.312933 0.244639 
465 1 16.2725 1.8776 0 0.244639 
467 1 16.5855 1.8776 0.312933 0.244639 
469 1 16.8984 1.8776 0 0.244639 
471 1 17.2113 1.8776 0.312933 0.244639 
473 1 17.5243 1.8776 0 0.244639 
475 1 17.8372 1.8776 0.312933 0.244639 
477 1 18.1501 1.8776 0 0.244639 
479 1 18.4631 1.8776 0.312933 0.244639 
364 1 0 2.19053 0.312933 0.244639 
362 1 0.312933 2.19053 0 0.244639 
368 1 0.625867 2.19053 0.312933 0.244639 
366 1 0.9388 2.19053 0 0.244639 
372 1 1.25173 2.19053 0.312933 0.244639 
370 1 1.56467 2.19053 0 0.244639 
376 1 1.8776 2.19053 0.312933 0.244639 
374 1 2.19053 2.19053 0 0.244639 
380 1 2.50347 2.19053 0.312933 0.244639 
378 1 2.8164 2.19053 0 0.244639 
384 1 3.12933 2.19053 0.312933 0.244639 
382 1 3.44227 2.19053 0 0.244639 
388 1 3.7552 2.19053 0.312933 0.244639 
386 1 4.06813 2.19053 0 0.244639 
392 1 4.38107 2.19053 0.312933 0.244639 
390 1 4.694 2.19053 0 0.244639 
396 1 5.00693 2.19053 0.312933 0.244639 
394 1 5.31987 2.19053 0 0.244639 
400 1 5.6328 2.19053 0.312933 0.244639 
398 1 5.94573 2.19053 0 0.244639 
404 1 6.25867 2.19053 0.312933 0.244639 
402 1 6.5716 2.19053 0 0.244639 
408 1 6.88453 2.19053 0.312933 0.244639 
406 1 7.19747 2.19053 0 0.244639 
412 1 7.5104 2.19053 0.312933 0.244639 
410 1 7.82333 2.19053 0 0.244639 
416 1 8.13627 2.19053 0.312933 0.244639 
414 1 8.4492 2.19053 0 0.244639 
420 1 8.76213 2.19053 0.312933 0.244639 
418 1 9.07507 2.19053 0 0.244639 
424 1 9.388 2.19053 0.312933 0.244639 
422 1 9.70093 2.19053 0 0.244639 
428 1 10.0139 2.19053 0.312933 0.244639 
426 1 10.3268 2.19053 0 0.244639 
432 1 10.6397 2.19053 0.312933 0.244639 
430 1 10.9527 2.19053 0 0.244639 
436 1 11.2656 2.19053 0.312933 0.244639 
434 1 11.5785 2.19053 0 0.244639 
440 1 11.8915 2.19053 0.312933 0.244639 
438 1 12.2044 2.19053 0 0.244639 
444 1 12.5173 2.19053 0.312933 0.244639 
442 1 12.8303 2.19053 0 0.244639 
448 1 13.1432 2.19053 0.312933 0.244639 
446 1 13.4561 2.19053 0 0.244639 
452 1 13.7691 2.19053 0.312933 0.244639 
450 1 14.082 2.19053 0 0.244639 
456 1 14.3949 2.19053 0.312933 0.244639 
454 1 14.7079 2.19053 0 0.244639 
460 1 15.0208 2.19053 0.312933 0.244639 
458 1 15.3337 2.19053 0 0.244639 
464 1 15.6467 2.19053 0.312933 0.244639 
462 1 15.9596 2.19053 0 0.244639 
468 1 16.2725 2.19053 0.312933 0.244639 
466 1 16.5855 2.19053 0 0.244639 
472 1 16.8984 2.19053 0.312933 0.244639 
470 1 17.2113 2.19053 0 0.244639 
476 1 17.5243 2.19053 0.312933 0.244639 
474 1 17.8372 2.19053 0 0.244639 
480 1 18.1501 2.19053 0.312933 0.244639 
478 1 18.4631 2.19053 0 0.244639 
481 1 0 2.50347 0 0.244639 
483 1 0.312933 2.50347 0.312933 0.244639 
485 1 0.625867 2.50347 0 0.244639 
487 1 0.9388 2.50347 0.312933 0.244639 
489 1 1.25173 2.50347 0 0.244639 
491 1 1.56467 2.50347 0.312933 0.244639 
493 1 1.8776 2.50347 0 0.244639 
495 1 2.19053 2.50347 0.312933 0.244639 
497 1 2.50347 2.50347 0 0.244639 
499 1 2.8164 2.50347 0.312933 0.244639 
501 1 3.12933 2.50347 0 0.244639 
503 1 3.44227 2.50347 0.312933 0.244639 
505 1 3.7552 2.50347 0 0.244639 
507 1 4.06813 2.50347 0.312933 0.244639 
509 1 4.38107 2.50347 0 0.244639 
511 1 4.694 2.50347 0.312933 0.244639 
513 1 5.00693 2.50347 0 0.244639 
515 1 5.31987 2.50347 0.312933 0.244639 
517 1 5.6328 2.50347 0 0.244639 
519 1 5.94573 2.50347 0.312933 0.244639 
521 1 6.25867 2.50347 0 0.244639 
523 1 6.5716 2.50347 0.312933 0.244639 
525 1 6.88453 2.50347 0 0.244639 
527 1 7.19747 2.50347 0.312933 0.244639 
529 1 7.5104 2.50347 0 0.244639 
531 1 7.82333 2.50347 0.312933 0.244639 
533 1 8.13627 2.50347 0 0.244639 
535 1 8.4492 2.50347 0.312933 0.244639 
537 1 8.76213 2.50347 0 0.244639 
539 1 9.07507 2.50347 0.312933 0.244639 
541 1 9.388 2.50347 0 0.244639 
543 1 9.70093 2.50347 0.312933 0.244639 
545 1 10.0139 2.50347 0 0.244639 
547 1 10.3268 2.50347 0.312933 0.244639 
549 1 10.6397 2.50347 0 0.244639 
551 1 10.9527 2.50347 0.312933 0.244639 
553 1 11.2656 2.50347 0 0.244639 
555 1 11.5785 2.50347 0.312933 0.244639 
557 1 11.8915 2.50347 0 0.244639 
559 1 12.2044 2.50347 0.312933 0.244639 
561 1 12.5173 2.50347 0 0.244639 
563 1 12.8303 2.50347 0.312933 0.244639 
565 1 13.1432 2.50347 0 0.244639 
567 1 13.4561 2.50347 0.312933 0.244639 
569 1 13.7691 2.50347 0 0.244639 
571 1 14.082 2.50347 0.312933 0.244639 
573 1 14.3949 2.50347 0 0.244639 
575 1 14.7079 2.50347 0.312933 0.244639 
577 1 15.0208 2.50347 0 0.244639 
579 1 15.3337 2.50347 0.312933 0.244639 
581 1 15.6467 2.50347 0 0.244639 
583 1 15.9596 2.50347 0.312933 0.244639 
585 1 16.2725 2.50347 0 0.244639 
587 1 16.5855 2.50347 0.312933 0.244639 
589 1 16.8984 2.50347 0 0.244639 
591 1 17.2113 2.50347 0.312933 0.244639 
593 1 17.5243 2.50347 0 0.244639 
595 1 17.8372 2.50347 0.312933 0.244639 
597 1 18.1501 2.50347 0 0.244639 
599 1 18.4631 2.50347 0.312933 0.244639 
484 1 0 2.8164 0.312933 0.244639 
482 1 0.312933 2.8164 0 0.244639 
488 1 0.625867 2.8164 0.312933 0.244639 
486 1 0.9388 2.8164 0 0.244639 
492 1 1.25173 2.8164 0.312933 0.244639 
490 1 1.56467 2.8164 0 0.244639 
496 1 1.8776 2.8164 0.312933 0.244639 
494 1 2.19053 2.8164 0 0.244639 
500 1 2.50347 2.8164 0.312933 0.244639 
498 1 2.8164 2.8164 0 0.244639 
504 1 3.12933 2.8164 0.312933 0.244639 
502 1 3.44227 2.8164 0 0.244639 
508 1 3.7552 2.8164 0.312933 0.244639 
506 1 4.06813 2.8164 0 0.244639 
512 1 4.38107 2.8164 0.312933 0.244639 
510 1 4.694 2.8164 0 0.244639 
516 1 5.00693 2.8164 0.312933 0.244639 
514 1 5.31987 2.8164 0 0.244639 
520 1 5.6328 2.8164 0.312933 0.244639 
518 1 5.94573 2.8164 0 0.244639 
524 1 6.25867 2.8164 0.312933 0.244639 
522 1 6.5716 2.8164 0 0.244639 
528 1 6.88453 2.8164 0.312933 0.244639 
526 1 7.19747 2.8164 0 0.244639 
532 1 7.5104 2.8164 0.312933 0.244639 
530 1 7.82333 2.8164 0 0.244639 
536 1 8.13627 2.8164 0.312933 0.244639 
534 1 8.4492 2.8164 0 0.244639 
540 1 8.76213 2.8164 0.312933 0.244639 
538 1 9.07507 2.8164 0 0.244639 
544 1 9.388 2.8164 0.312933 0.244639 
542 1 9.70093 2.8164 0 0.244639 
548 1 10.0139 2.8164 0.312933 0.244639 
546 1 10.3268 2.8164 0 0.244639 
552 1 10.6397 2.8164 0.312933 0.244639 
550 1 10.9527 2.8164 0 0.244639 
556 1 11.2656 2.8164 0.312933 0.244639 
554 1 11.5785 2.8164 0 0.244639 
560 1 11.8915 2.8164 0.312933 0.244639 
558 1 12.2044 2.8164 0 0.244639 
564 1 12.5173 2.8164 0.312933 0.244639 
562 1 12.8303 2.8164 0 0.244639 
568 1 13.1432 2.8164 0.312933 0.244639 
566 1 13.4561 2.8164 0 0.244639 
572 1 13.7691 2.8164 0.312933 0.244639 
570 1 14.082 2.8164 0 0.244639 
576 1 14.3949 2.8164 0.312933 0.244639 
574 1 14.7079 2.8164 0 0.244639 
580 1 15.0208 2.8164 0.312933 0.244639 
578 1 15.3337 2.8164 0 0.244639 
584 1 15.6467 2.8164 0.312933 0.244639 
582 1 15.9596 2.8164 0 0.244639 
588 1 16.2725 2.8164 0.312933 0.244639 
586 1 16.5855 2.8164 0 0.244639 
592 1 16.8984 2.8164 0.312933 0.244639 
590 1 17.2113 2.8164 0 0.244639 
596 1 17.5243 2.8164 0.312933 0.244639 
594 1 17.8372 2.8164 0 0.244639 
600 1 18.1501 2.8164 0.312933 0.244639 
598 1 18.4631 2.8164 0 0.244639 
601 1 0 3.12933 0 0.244639 
603 1 0.312933 3.12933 0.312933 0.244639 
605 1 0.625867 3.12933 0 0.244639 
607 1 0.9388 3.12933 0.312933 0.244639 
609 1 1.25173 3.12933 0 0.244639 
611 1 1.56467 3.12933 0.312933 0.244639 
613 1 1.8776 3.12933 0 0.244639 
615 1 2.19053 3.12933 0.312933 0.244639 
617 1 2.50347 3.12933 0 0.244639 
619 1 2.8164 3.12933 0.312933 0.244639 
621 1 3.12933 3.12933 0 0.244639 
623 1 3.44227 3.12933 0.312933 0.244639 
625 1 3.7552 3.12933 0 0.244639 
627 1 4.06813 3.12933 0.312933 0.244639 
629 1 4.38107 3.12933 0 0.244639 
631 1 4.694 3.12933 0.312933 0.244639 
633 1 5.00693 3.12933 0 0.244639 
635 1 5.31987 3.12933 0.312933 0.244639 
637 1 5.6328 3.12933 0 0.244639 
639 1 5.94573 3.12933 0.312933 0.244639 
641 1 6.25867 3.12933 0 0.244639 
643 1 6.5716 3.12933 0.312933 0.244639 
645 1 6.88453 3.12933 0 0.244639 
647 1 7.19747 3.12933 0.312933 0.244639 
649 1 7.5104 3.12933 0 0.244639 
651 1 7.82333 3.12933 0.312933 0.244639 
653 1 8.13627 3.12933 0 0.244639 
655 1 8.4492 3.12933 0.312933 0.244639 
657 1 8.76213 3.12933 0 0.244639 
659 1 9.07507 3.12933 0.312933 0.244639 
661 1 9.388 3.12933 0 0.244639 
663 1 9.70093 3.12933 0.312933 0.244639 
665 1 10.0139 3.12933 0 0.244639 
667 1 10.3268 3.12933 0.312933 0.244639 
669 1 10.6397 3.12933 0 0.244639 
671 1 10.9527 3.12933 0.312933 0.244639 
673 1 11.2656 3.12933 0 0.244639 
675 1 11.5785 3.12933 0.312933 0.244639 
677 1 11.8915 3.12933 0 0.244639 
679 1 12.2044 3.12933 0.312933 0.244639 
681 1 12.5173 3.12933 0 0.244639 
683 1 12.8303 3.12933 0.312933 0.244639 
685 1 13.1432 3.12933 0 0.244639 
687 1 13.4561 3.12933 0.312933 0.244639 
689 1 13.7691 3.12933 0 0.244639 
691 1 14.082 3.12933 0.312933 0.244639 
693 1 14.3949 3.12933 0 0.244639 
695 1 14.7079 3.12933 0.312933 0.244639 
697 1 15.0208 3.12933 0 0.244639 
699 1 15.3337 3.12933 0.312933 0.244639 
701 1 15.6467 3.12933 0 0.244639 
703 1 15.9596 3.12933 0.312933 0.244639 
705 1 16.2725 3.12933 0 0.244639 
707 1 16.5855 3.12933 0.312933 0.244639 
709 1 16.8984 3.12933 0 0.244639 
711 1 17.2113 3.12933 0.312933 0.244639 
713 1 17.5243 3.12933 0 0.244639 
715 1 17.8372 3.12933 0.312933 0.244639 
717 1 18.1501 3.12933 0 0.244639 
719 1 18.4631 3.12933 0.312933 0.244639 
604 1 0 3.44227 0.312933 0.244639 
602 1 0.312933 3.44227 0 0.244639 
608 1 0.625867 3.44227 0.312933 0.244639 
606 1 0.9388 3.44227 0 0.244639 
612 1 1.25173 3.44227 0.312933 0.244639 
610 1 1.56467 3.44227 0 0.244639 
616 1 1.8776 3.44227 0.312933 0.244639 
614 1 2.19053 3.44227 0 0.244639 
620 1 2.50347 3.44227 0.312933 0.244639 
618 1 2.8164 3.44227 0 0.244639 
624 1 3.12933 3.44227 0.312933 0.244639 
622 1 3.44227 3.44227 0 0.244639 
628 1 3.7552 3.44227 0.312933 0.244639 
626 1 4.06813 3.44227 0 0.244639 
632 1 4.38107 3.44227 0.312933 0.244639 
630 1 4.694 3.44227 0 0.244639 
636 1 5.00693 3.44227 0.312933 0.244639 
634 1 5.31987 3.44227 0 0.244639 
640 1 5.6328 3.44227 0.312933 0.244639 
638 1 5.94573 3.44227 0 0.244639 
644 1 6.25867 3.44227 0.312933 0.244639 
642 1 6.5716 3.44227 0 0.244639 
648 1 6.88453 3.44227 0.312933 0.244639 
646 1 7.19747 3.44227 0 0.244639 
652 1 7.5104 3.44227 0.312933 0.244639 
650 1 7.82333 3.44227 0 0.244639 
656 1 8.13627 3.44227 0.312933 0.244639 
654 1 8.4492 3.44227 0 0.244639 
660 1 8.76213 3.44227 0.312933 0.244639 
658 1 9.07507 3.44227 0 0.244639 
664 1 9.388 3.44227 0.312933 0.244639 
662 1 9.70093 3.44227 0 0.244639 
668 1 10.0139 3.44227 0.312933 0.244639 
666 1 10.3268 3.44227 0 0.244639 
672 1 10.6397 3.44227 0.312933 0.244639 
670 1 10.9527 3.44227 0 0.244639 
676 1 11.2656 3.44227 0.312933 0.244639 
674 1 11.5785 3.44227 0 0.244639 
680 1 11.8915 3.44227 0.312933 0.244639 
678 1 12.2044 3.44227 0 0.244639 
684 1 12.5173 3.44227 0.312933 0.244639 
682 1 12.8303 3.44227 0 0.244639 
688 1 13.1432 3.44227 0.312933 0.244639 
686 1 13.4561 3.44227 0 0.244639 
692 1 13.7691 3.44227 0.312933 0.244639 
690 1 14.082 3.44227 0 0.244639 
696 1 14.3949 3.44227 0.312933 0.244639 
694 1 14.7079 3.44227 0 0.244639 
700 1 15.0208 3.44227 0.312933 0.244639 
698 1 15.3337 3.44227 0 0.244639 
704 1 15.6467 3.44227 0.312933 0.244639 
702 1 15.9596 3.44227 0 0.244639 
708 1 16.2725 3.44227 0.312933 0.244639 
706 1 16.5855 3.44227 0 0.244639 
712 1 16.8984 3.44227 0.312933 0.244639 
710 1 17.2113 3.44227 0 0.244639 
716 1 17.5243 3.44227 0.312933 0.244639 
714 1 17.8372 3.44227 0 0.244639 
720 1 18.1501 3.44227 0.312933 0.244639 
718 1 18.4631 3.44227 0 0.244639 
721 1 0 0 0.625867 0.244639 
723 1 0.625867 0 0.625867 0.244639 
725 2 1.25173 0 0.625867 0.244639 
727 2 1.8776 0 0.625867 0.244639 
729 2 2.50347 0 0.625867 0.244639 
731 2 3.12933 0 0.625867 0.244639 
733 2 3.7552 0 0.625867 0.244639 
735 2 4.38107 0 0.625867 0.244639 
737 2 5.00693 0 0.625867 0.244639 
739 2 5.6328 0 0.625867 0.244639 
741 2 6.25867 0 0.625867 0.244639 
743 2 6.88453 0 0.625867 0.244639 
745 2 7.5104 0 0.625867 0.244639 
747 2 8.13627 0 0.625867 0.244639 
749 2 8.76213 0 0.625867 0.244639 
751 2 9.388 0 0.625867 0.244639 
753 2 10.0139 0 0.625867 0.244639 
755 2 10.6397 0 0.625867 0.244639 
757 2 11.2656 0 0.625867 0.244639 
759 2 11.8915 0 0.625867 0.244639 
761 2 12.5173 0 0.625867 0.244639 
722 1 0.312933 0.312933 0.625867 0.244639 
724 2 0.9388 0.312933 0.625867 0.244639 
726 2 1.56467 0.312933 0.625867 0.244639 
728 2 2.19053 0.312933 0.625867 0.244639 
730 2 2.8164 0.312933 0.625867 0.244639 
732 2 3.44227 0.312933 0.625867 0.244639 
734 2 4.06813 0.312933 0.625867 0.244639 
736 2 4.694 0.312933 0.625867 0.244639 
738 2 5.31987 0.312933 0.625867 0.244639 
740 2 5.94573 0.312933 0.625867 0.244639 
742 2 6.5716 0.312933 0.625867 0.244639 
744 2 7.19747 0.312933 0.625867 0.244639 
746 2 7.82333 0.312933 0.625867 0.244639 
748 2 8.4492 0.312933 0.625867 0.244639 
750 2 9.07507 0.312933 0.625867 0.244639 
752 2 9.70093 0.312933 0.625867 0.244639 
754 2 10.3268 0.312933 0.625867 0.244639 
756 2 10.9527 0.312933 0.625867 0.244639 
758 2 11.5785 0.312933 0.625867 0.244639 
760 2 12.2044 0.312933 0.625867 0.244639 
781 1 0 0.625867 0.625867 0.244639 
783 1 0.625867 0.625867 0.625867 0.244639 
785 2 1.25173 0.625867 0.625867 0.244639 
787 2 1.8776 0.625867 0.625867 0.244639 
789 2 2.50347 0.625867 0.625867 0.244639 
791 2 3.12933 0.625867 0.625867 0.244639 
793 2 3.7552 0.625867 0.625867 0.244639 
795 2 4.38107 0.625867 0.625867 0.244639 
797 2 5.00693 0.625867 0.625867 0.244639 
799 2 5.6328 0.625867 0.625867 0.244639 
801 2 6.25867 0.625867 0.625867 0.244639 
803 2 6.88453 0.625867 0.625867 0.244639 
805 2 7.5104 0.625867 0.625867 0.244639 
807 2 8.13627 0.625867 0.625867 0.244639 
809 2 8.76213 0.625867 0.625867 0.244639 
811 2 9.388 0.625867 0.625867 0.244639 
813 2 10.0139 0.625867 0.625867 0.244639 
815 2 10.6397 0.625867 0.625867 0.244639 
817 2 11.2656 0.625867 0.625867 0.244639 
819 2 11.8915 0.625867 0.625867 0.244639 
821 2 12.5173 0.625867 0.625867 0.244639 
782 1 0.312933 0.9388 0.625867 0.244639 
784 2 0.9388 0.9388 0.625867 0.244639 
786 2 1.56467 0.9388 0.625867 0.244639 
788 2 2.19053 0.9388 0.625867 0.244639 
790 2 2.8164 0.9388 0.625867 0.244639 
792 2 3.44227 0.9388 0.625867 0.244639 
794 2 4.06813 0.9388 0.625867 0.244639 
796 2 4.694 0.9388 0.625867 0.244639 
798 2 5.31987 0.9388 0.625867 0.244639 
800 2 5.94573 0.9388 0.625867 0.244639 
802 2 6.5716 0.9388 0.625867 0.244639 
804 2 7.19747 0.9388 0.625867 0.244639 
806 2 7.82333 0.9388 0.625867 0.244639 
808 2 8.4492 0.9388 0.625867 0.244639 
810 2 9.07507 0.9388 0.625867 0.244639 
812 2 9.70093 0.9388 0.625867 0.244639 
814 2 10.3268 0.9388 0.625867 0.244639 
816 2 10.9527 0.9388 0.625867 0.244639 
818 2 11.5785 0.9388 0.625867 0.244639 
820 2 12.2044 0.9388 0.625867 0.244639 
841 1 0 1.25173 0.625867 0.244639 
843 1 0.625867 1.25173 0.625867 0.244639 
845 2 1.25173 1.25173 0.625867 0.244639 
847 2 1.8776 1.25173 0.625867 0.244639 
849 2 2.50347 1.25173 0.625867 0.244639 
851 2 3.12933 1.25173 0.625867 0.244639 