ITEM: TIMESTEP
4341
ITEM: NUMBER OF ATOMS
746
ITEM: BOX BOUNDS pp pp ff
0.0 6.2586658033
0.0 6.2586658033
0.0 6.2586658033
ITEM: ATOMS id type x y z radius
273 1 3.44227 1.8776 0.9388 0.244639
274 1 3.12933 2.19053 0.9388 0.244639
278 1 3.7552 2.19053 0.9388 0.244639
305 1 2.8164 2.50347 0.9388 0.244639
309 1 3.44227 2.50347 0.9388 0.244639
313 1 4.06813 2.50347 0.9388 0.244639
306 1 2.50347 2.8164 0.9388 0.244639
310 1 3.12933 2.8164 0.9388 0.244639
314 1 3.7552 2.8164 0.9388 0.244639
341 1 2.8164 3.12933 0.9388 0.244639
345 1 3.44227 3.12933 0.9388 0.244639
349 1 4.06813 3.12933 0.9388 0.244639
342 1 2.50347 3.44227 0.9388 0.244639
346 1 3.12933 3.44227 0.9388 0.244639
350 1 3.7552 3.44227 0.9388 0.244639
377 1 2.8164 3.7552 0.9388 0.244639
381 1 3.44227 3.7552 0.9388 0.244639
560 1 3.44227 1.56467 1.25173 0.244639
595 1 3.12933 1.8776 1.25173 0.244639
599 1 3.7552 1.8776 1.25173 0.244639
592 1 2.8164 2.19053 1.25173 0.244639
596 1 3.44227 2.19053 1.25173 0.244639
600 1 4.06813 2.19053 1.25173 0.244639
627 1 2.50347 2.50347 1.25173 0.244639
631 1 3.12933 2.50347 1.25173 0.244639
635 1 3.7552 2.50347 1.25173 0.244639
639 1 4.38107 2.50347 1.25173 0.244639
624 1 2.19053 2.8164 1.25173 0.244639
628 1 2.8164 2.8164 1.25173 0.244639
632 1 3.44227 2.8164 1.25173 0.244639
636 1 4.06813 2.8164 1.25173 0.244639
659 1 1.8776 3.12933 1.25173 0.244639
663 1 2.50347 3.12933 1.25173 0.244639
667 1 3.12933 3.12933 1.25173 0.244639
671 1 3.7552 3.12933 1.25173 0.244639
675 1 4.38107 3.12933 1.25173 0.244639
660 1 2.19053 3.44227 1.25173 0.244639
664 1 2.8164 3.44227 1.25173 0.244639
668 1 3.44227 3.44227 1.25173 0.244639
672 1 4.06813 3.44227 1.25173 0.244639
699 1 2.50347 3.7552 1.25173 0.244639
703 1 3.12933 3.7552 1.25173 0.244639
707 1 3.7552 3.7552 1.25173 0.244639
700 1 2.8164 4.06813 1.25173 0.244639
704 1 3.44227 4.06813 1.25173 0.244639
739 1 3.12933 4.38107 1.25173 0.244639
561 1 3.44227 1.25173 1.56467 0.244639
558 1 2.50347 1.56467 1.56467 0.244639
562 1 3.12933 1.56467 1.56467 0.244639
566 1 3.7552 1.56467 1.56467 0.244639
589 1 2.19053 1.8776 1.56467 0.244639
593 1 2.8164 1.8776 1.56467 0.244639
597 1 3.44227 1.8776 1.56467 0.244639
601 1 4.06813 1.8776 1.56467 0.244639
590 1 1.8776 2.19053 1.56467 0.244639
594 1 2.50347 2.19053 1.56467 0.244639
598 1 3.12933 2.19053 1.56467 0.244639
602 1 3.7552 2.19053 1.56467 0.244639
606 1 4.38107 2.19053 1.56467 0.244639
625 1 2.19053 2.50347 1.56467 0.244639
629 1 2.8164 2.50347 1.56467 0.244639
633 1 3.44227 2.50347 1.56467 0.244639
637 1 4.06813 2.50347 1.56467 0.244639
641 1 4.694 2.50347 1.56467 0.244639
626 1 1.8776 2.8164 1.56467 0.244639
630 1 2.50347 2.8164 1.56467 0.244639
634 1 3.12933 2.8164 1.56467 0.244639
638 1 3.7552 2.8164 1.56467 0.244639
642 1 4.38107 2.8164 1.56467 0.244639
657 1 1.56467 3.12933 1.56467 0.244639
661 1 2.19053 3.12933 1.56467 0.244639
665 1 2.8164 3.12933 1.56467 0.244639
669 1 3.44227 3.12933 1.56467 0.244639
673 1 4.06813 3.12933 1.56467 0.244639
662 1 1.8776 3.44227 1.56467 0.244639
666 1 2.50347 3.44227 1.56467 0.244639
670 1 3.12933 3.44227 1.56467 0.244639
674 1 3.7552 3.44227 1.56467 0.244639
678 1 4.38107 3.44227 1.56467 0.244639
697 1 2.19053 3.7552 1.56467 0.244639
701 1 2.8164 3.7552 1.56467 0.244639
705 1 3.44227 3.7552 1.56467 0.244639
709 1 4.06813 3.7552 1.56467 0.244639
702 1 2.50347 4.06813 1.56467 0.244639
706 1 3.12933 4.06813 1.56467 0.244639
710 1 3.7552 4.06813 1.56467 0.244639
737 1 2.8164 4.38107 1.56467 0.244639
741 1 3.44227 4.38107 1.56467 0.244639
742 1 3.12933 4.694 1.56467 0.244639
879 1 2.50347 1.25173 1.8776 0.244639
883 1 3.12933 1.25173 1.8776 0.244639
887 1 3.7552 1.25173 1.8776 0.244639
876 1 2.19053 1.56467 1.8776 0.244639
880 1 2.8164 1.56467 1.8776 0.244639
884 1 3.44227 1.56467 1.8776 0.244639
888 1 4.06813 1.56467 1.8776 0.244639
911 1 1.8776 1.8776 1.8776 0.244639
915 1 2.50347 1.8776 1.8776 0.244639
919 1 3.12933 1.8776 1.8776 0.244639
923 1 3.7552 1.8776 1.8776 0.244639
927 1 4.38107 1.8776 1.8776 0.244639
908 1 1.56467 2.19053 1.8776 0.244639
912 1 2.19053 2.19053 1.8776 0.244639
916 1 2.8164 2.19053 1.8776 0.244639
920 1 3.44227 2.19053 1.8776 0.244639
924 1 4.06813 2.19053 1.8776 0.244639
928 1 4.694 2.19053 1.8776 0.244639
947 1 1.8776 2.50347 1.8776 0.244639
951 1 2.50347 2.50347 1.8776 0.244639
955 1 3.12933 2.50347 1.8776 0.244639
959 1 3.7552 2.50347 1.8776 0.244639
963 1 4.38107 2.50347 1.8776 0.244639
967 1 5.00693 2.50347 1.8776 0.244639
944 1 1.56467 2.8164 1.8776 0.244639
948 1 2.19053 2.8164 1.8776 0.244639
952 1 2.8164 2.8164 1.8776 0.244639
956 1 3.44227 2.8164 1.8776 0.244639
960 1 4.06813 2.8164 1.8776 0.244639
964 1 4.694 2.8164 1.8776 0.244639
979 1 1.25173 3.12933 1.8776 0.244639
983 1 1.8776 3.12933 1.8776 0.244639
987 1 2.50347 3.12933 1.8776 0.244639
991 1 3.12933 3.12933 1.8776 0.244639
995 1 3.7552 3.12933 1.8776 0.244639
999 1 4.38107 3.12933 1.8776 0.244639
980 1 1.56467 3.44227 1.8776 0.244639
984 1 2.19053 3.44227 1.8776 0.244639
988 1 2.8164 3.44227 1.8776 0.244639
992 1 3.44227 3.44227 1.8776 0.244639
996 1 4.06813 3.44227 1.8776 0.244639
1000 1 4.694 3.44227 1.8776 0.244639
1019 1 1.8776 3.7552 1.8776 0.244639
1023 1 2.50347 3.7552 1.8776 0.244639
1027 1 3.12933 3.7552 1.8776 0.244639
1031 1 3.7552 3.7552 1.8776 0.244639
1035 1 4.38107 3.7552 1.8776 0.244639
1020 1 2.19053 4.06813 1.8776 0.244639
1024 1 2.8164 4.06813 1.8776 0.244639
1028 1 3.44227 4.06813 1.8776 0.244639
1032 1 4.06813 4.06813 1.8776 0.244639
1059 1 2.50347 4.38107 1.8776 0.244639
1063 1 3.12933 4.38107 1.8776 0.244639
1067 1 3.7552 4.38107 1.8776 0.244639
1060 1 2.8164 4.694 1.8776 0.244639
1064 1 3.44227 4.694 1.8776 0.244639
1099 1 3.12933 5.00693 1.8776 0.244639
846 1 2.50347 0.9388 2.19053 0.244639
850 1 3.12933 0.9388 2.19053 0.244639
854 1 3.7552 0.9388 2.19053 0.244639
877 1 2.19053 1.25173 2.19053 0.244639
881 1 2.8164 1.25173 2.19053 0.244639
885 1 3.44227 1.25173 2.19053 0.244639
889 1 4.06813 1.25173 2.19053 0.244639
878 1 1.8776 1.56467 2.19053 0.244639
882 1 2.50347 1.56467 2.19053 0.244639
886 1 3.12933 1.56467 2.19053 0.244639
890 1 3.7552 1.56467 2.19053 0.244639
894 1 4.38107 1.56467 2.19053 0.244639
909 1 1.56467 1.8776 2.19053 0.244639
913 1 2.19053 1.8776 2.19053 0.244639
917 1 2.8164 1.8776 2.19053 0.244639
921 1 3.44227 1.8776 2.19053 0.244639
925 1 4.06813 1.8776 2.19053 0.244639
929 1 4.694 1.8776 2.19053 0.244639
914 1 1.8776 2.19053 2.19053 0.244639
918 1 2.50347 2.19053 2.19053 0.244639
922 1 3.12933 2.19053 2.19053 0.244639
926 1 3.7552 2.19053 2.19053 0.244639
930 1 4.38107 2.19053 2.19053 0.244639
934 1 5.00693 2.19053 2.19053 0.244639
945 1 1.56467 2.50347 2.19053 0.244639
949 1 2.19053 2.50347 2.19053 0.244639
953 1 2.8164 2.50347 2.19053 0.244639
957 1 3.44227 2.50347 2.19053 0.244639
961 1 4.06813 2.50347 2.19053 0.244639
965 1 4.694 2.50347 2.19053 0.244639
969 1 5.31987 2.50347 2.19053 0.244639
946 1 1.25173 2.8164 2.19053 0.244639
950 1 1.8776 2.8164 2.19053 0.244639
954 1 2.50347 2.8164 2.19053 0.244639
958 1 3.12933 2.8164 2.19053 0.244639
962 1 3.7552 2.8164 2.19053 0.244639
966 1 4.38107 2.8164 2.19053 0.244639
970 1 5.00693 2.8164 2.19053 0.244639
977 1 0.9388 3.12933 2.19053 0.244639
981 1 1.56467 3.12933 2.19053 0.244639
985 1 2.19053 3.12933 2.19053 0.244639
989 1 2.8164 3.12933 2.19053 0.244639
993 1 3.44227 3.12933 2.19053 0.244639
997 1 4.06813 3.12933 2.19053 0.244639
1001 1 4.694 3.12933 2.19053 0.244639
982 1 1.25173 3.44227 2.19053 0.244639
986 1 1.8776 3.44227 2.19053 0.244639
990 1 2.50347 3.44227 2.19053 0.244639
994 1 3.12933 3.44227 2.19053 0.244639
998 1 3.7552 3.44227 2.19053 0.244639
1002 1 4.38107 3.44227 2.19053 0.244639
1017 1 1.56467 3.7552 2.19053 0.244639
1021 1 2.19053 3.7552 2.19053 0.244639
1025 1 2.8164 3.7552 2.19053 0.244639
1029 1 3.44227 3.7552 2.19053 0.244639
1033 1 4.06813 3.7552 2.19053 0.244639
1037 1 4.694 3.7552 2.19053 0.244639
1022 1 1.8776 4.06813 2.19053 0.244639
1026 1 2.50347 4.06813 2.19053 0.244639
1030 1 3.12933 4.06813 2.19053 0.244639
1034 1 3.7552 4.06813 2.19053 0.244639
1038 1 4.38107 4.06813 2.19053 0.244639
1057 1 2.19053 4.38107 2.19053 0.244639
1061 1 2.8164 4.38107 2.19053 0.244639
1065 1 3.44227 4.38107 2.19053 0.244639
1069 1 4.06813 4.38107 2.19053 0.244639
1062 1 2.50347 4.694 2.19053 0.244639
1066 1 3.12933 4.694 2.19053 0.244639
1070 1 3.7552 4.694 2.19053 0.244639
1097 1 2.8164 5.00693 2.19053 0.244639
1101 1 3.44227 5.00693 2.19053 0.244639
1164 1 2.19053 0.9388 2.50347 0.244639
1168 1 2.8164 0.9388 2.50347 0.244639
1172 1 3.44227 0.9388 2.50347 0.244639
1176 1 4.06813 0.9388 2.50347 0.244639
1199 1 1.8776 1.25173 2.50347 0.244639
1203 1 2.50347 1.25173 2.50347 0.244639
1207 1 3.12933 1.25173 2.50347 0.244639
1211 1 3.7552 1.25173 2.50347 0.244639
1215 1 4.38107 1.25173 2.50347 0.244639
1196 1 1.56467 1.56467 2.50347 0.244639
1200 1 2.19053 1.56467 2.50347 0.244639
1204 1 2.8164 1.56467 2.50347 0.244639
1208 1 3.44227 1.56467 2.50347 0.244639
1212 1 4.06813 1.56467 2.50347 0.244639
1216 1 4.694 1.56467 2.50347 0.244639
1235 1 1.8776 1.8776 2.50347 0.244639
1239 1 2.50347 1.8776 2.50347 0.244639
1243 1 3.12933 1.8776 2.50347 0.244639
1247 1 3.7552 1.8776 2.50347 0.244639
1251 1 4.38107 1.8776 2.50347 0.244639
1255 1 5.00693 1.8776 2.50347 0.244639
1232 1 1.56467 2.19053 2.50347 0.244639
1236 1 2.19053 2.19053 2.50347 0.244639
1240 1 2.8164 2.19053 2.50347 0.244639
1244 1 3.44227 2.19053 2.50347 0.244639
1248 1 4.06813 2.19053 2.50347 0.244639
1252 1 4.694 2.19053 2.50347 0.244639
1256 1 5.31987 2.19053 2.50347 0.244639
1267 1 1.25173 2.50347 2.50347 0.244639
1271 1 1.8776 2.50347 2.50347 0.244639
1275 1 2.50347 2.50347 2.50347 0.244639
1279 1 3.12933 2.50347 2.50347 0.244639
1283 1 3.7552 2.50347 2.50347 0.244639
1287 1 4.38107 2.50347 2.50347 0.244639
1291 1 5.00693 2.50347 2.50347 0.244639
1264 1 0.9388 2.8164 2.50347 0.244639
1268 1 1.56467 2.8164 2.50347 0.244639
1272 1 2.19053 2.8164 2.50347 0.244639
1276 1 2.8164 2.8164 2.50347 0.244639
1280 1 3.44227 2.8164 2.50347 0.244639
1284 1 4.06813 2.8164 2.50347 0.244639
1288 1 4.694 2.8164 2.50347 0.244639
1292 1 5.31987 2.8164 2.50347 0.244639
1303 1 1.25173 3.12933 2.50347 0.244639
1307 1 1.8776 3.12933 2.50347 0.244639
1311 1 2.50347 3.12933 2.50347 0.244639
1315 1 3.12933 3.12933 2.50347 0.244639
1319 1 3.7552 3.12933 2.50347 0.244639
1323 1 4.38107 3.12933 2.50347 0.244639
1327 1 5.00693 3.12933 2.50347 0.244639
1300 1 0.9388 3.44227 2.50347 0.244639
1304 1 1.56467 3.44227 2.50347 0.244639
1308 1 2.19053 3.44227 2.50347 0.244639
1312 1 2.8164 3.44227 2.50347 0.244639
1316 1 3.44227 3.44227 2.50347 0.244639
1320 1 4.06813 3.44227 2.50347 0.244639
1324 1 4.694 3.44227 2.50347 0.244639
1339 1 1.25173 3.7552 2.50347 0.244639
1343 1 1.8776 3.7552 2.50347 0.244639
1347 1 2.50347 3.7552 2.50347 0.244639
1351 1 3.12933 3.7552 2.50347 0.244639
1355 1 3.7552 3.7552 2.50347 0.244639
1359 1 4.38107 3.7552 2.50347 0.244639
1340 1 1.56467 4.06813 2.50347 0.244639
1344 1 2.19053 4.06813 2.50347 0.244639
1348 1 2.8164 4.06813 2.50347 0.244639
1352 1 3.44227 4.06813 2.50347 0.244639
1356 1 4.06813 4.06813 2.50347 0.244639
1379 1 1.8776 4.38107 2.50347 0.244639
1383 1 2.50347 4.38107 2.50347 0.244639
1387 1 3.12933 4.38107 2.50347 0.244639
1391 1 3.7552 4.38107 2.50347 0.244639
1380 1 2.19053 4.694 2.50347 0.244639
1384 1 2.8164 4.694 2.50347 0.244639
1388 1 3.44227 4.694 2.50347 0.244639
1419 1 2.50347 5.00693 2.50347 0.244639
1423 1 3.12933 5.00693 2.50347 0.244639
1166 1 1.8776 0.9388 2.8164 0.244639
1170 1 2.50347 0.9388 2.8164 0.244639
1174 1 3.12933 0.9388 2.8164 0.244639
1178 1 3.7552 0.9388 2.8164 0.244639
1197 1 1.56467 1.25173 2.8164 0.244639
1201 1 2.19053 1.25173 2.8164 0.244639
1205 1 2.8164 1.25173 2.8164 0.244639
1209 1 3.44227 1.25173 2.8164 0.244639
1213 1 4.06813 1.25173 2.8164 0.244639
1217 1 4.694 1.25173 2.8164 0.244639
1202 1 1.8776 1.56467 2.8164 0.244639
1206 1 2.50347 1.56467 2.8164 0.244639
1210 1 3.12933 1.56467 2.8164 0.244639
1214 1 3.7552 1.56467 2.8164 0.244639
1218 1 4.38107 1.56467 2.8164 0.244639
1222 1 5.00693 1.56467 2.8164 0.244639
1233 1 1.56467 1.8776 2.8164 0.244639
1237 1 2.19053 1.8776 2.8164 0.244639
1241 1 2.8164 1.8776 2.8164 0.244639
1245 1 3.44227 1.8776 2.8164 0.244639
1249 1 4.06813 1.8776 2.8164 0.244639
1253 1 4.694 1.8776 2.8164 0.244639
1234 1 1.25173 2.19053 2.8164 0.244639
1238 1 1.8776 2.19053 2.8164 0.244639
1242 1 2.50347 2.19053 2.8164 0.244639
1246 1 3.12933 2.19053 2.8164 0.244639
1250 1 3.7552 2.19053 2.8164 0.244639
1254 1 4.38107 2.19053 2.8164 0.244639
1258 1 5.00693 2.19053 2.8164 0.244639
1265 1 0.9388 2.50347 2.8164 0.244639
1269 1 1.56467 2.50347 2.8164 0.244639
1273 1 2.19053 2.50347 2.8164 0.244639
1277 1 2.8164 2.50347 2.8164 0.244639
1281 1 3.44227 2.50347 2.8164 0.244639
1285 1 4.06813 2.50347 2.8164 0.244639
1289 1 4.694 2.50347 2.8164 0.244639
1293 1 5.31987 2.50347 2.8164 0.244639
1270 1 1.25173 2.8164 2.8164 0.244639
1274 1 1.8776 2.8164 2.8164 0.244639
1278 1 2.50347 2.8164 2.8164 0.244639
1282 1 3.12933 2.8164 2.8164 0.244639
1286 1 3.7552 2.8164 2.8164 0.244639
1290 1 4.38107 2.8164 2.8164 0.244639
1294 1 5.00693 2.8164 2.8164 0.244639
1301 1 0.9388 3.12933 2.8164 0.244639
1305 1 1.56467 3.12933 2.8164 0.244639
1309 1 2.19053 3.12933 2.8164 0.244639
1313 1 2.8164 3.12933 2.8164 0.244639
1317 1 3.44227 3.12933 2.8164 0.244639
1321 1 4.06813 3.12933 2.8164 0.244639
1325 1 4.694 3.12933 2.8164 0.244639
1306 1 1.25173 3.44227 2.8164 0.244639
1310 1 1.8776 3.44227 2.8164 0.244639
1314 1 2.50347 3.44227 2.8164 0.244639
1318 1 3.12933 3.44227 2.8164 0.244639
1322 1 3.7552 3.44227 2.8164 0.244639
1326 1 4.38107 3.44227 2.8164 0.244639
1330 1 5.00693 3.44227 2.8164 0.244639
1337 1 0.9388 3.7552 2.8164 0.244639
1341 1 1.56467 3.7552 2.8164 0.244639
1345 1 2.19053 3.7552 2.8164 0.244639
1349 1 2.8164 3.7552 2.8164 0.244639
1353 1 3.44227 3.7552 2.8164 0.244639
1357 1 4.06813 3.7552 2.8164 0.244639
1361 1 4.694 3.7552 2.8164 0.244639
1342 1 1.25173 4.06813 2.8164 0.244639
1346 1 1.8776 4.06813 2.8164 0.244639
1350 1 2.50347 4.06813 2.8164 0.244639
1354 1 3.12933 4.06813 2.8164 0.244639
1358 1 3.7552 4.06813 2.8164 0.244639
1362 1 4.38107 4.06813 2.8164 0.244639
1381 1 2.19053 4.38107 2.8164 0.244639
1385 1 2.8164 4.38107 2.8164 0.244639
1389 1 3.44227 4.38107 2.8164 0.244639
1393 1 4.06813 4.38107 2.8164 0.244639
1386 1 2.50347 4.694 2.8164 0.244639
1390 1 3.12933 4.694 2.8164 0.244639
1394 1 3.7552 4.694 2.8164 0.244639
1421 1 2.8164 5.00693 2.8164 0.244639
1488 1 2.19053 0.9388 3.12933 0.244639
1492 1 2.8164 0.9388 3.12933 0.244639
1496 1 3.44227 0.9388 3.12933 0.244639
1500 1 4.06813 0.9388 3.12933 0.244639
1523 1 1.8776 1.25173 3.12933 0.244639
1527 1 2.50347 1.25173 3.12933 0.244639
1531 1 3.12933 1.25173 3.12933 0.244639
1535 1 3.7552 1.25173 3.12933 0.244639
1539 1 4.38107 1.25173 3.12933 0.244639
1520 1 1.56467 1.56467 3.12933 0.244639
1524 1 2.19053 1.56467 3.12933 0.244639
1528 1 2.8164 1.56467 3.12933 0.244639
1532 1 3.44227 1.56467 3.12933 0.244639
1536 1 4.06813 1.56467 3.12933 0.244639
1540 1 4.694 1.56467 3.12933 0.244639
1555 1 1.25173 1.8776 3.12933 0.244639
1559 1 1.8776 1.8776 3.12933 0.244639
1563 1 2.50347 1.8776 3.12933 0.244639
1567 1 3.12933 1.8776 3.12933 0.244639
1571 1 3.7552 1.8776 3.12933 0.244639
1575 1 4.38107 1.8776 3.12933 0.244639
1579 1 5.00693 1.8776 3.12933 0.244639
1556 1 1.56467 2.19053 3.12933 0.244639
1560 1 2.19053 2.19053 3.12933 0.244639
1564 1 2.8164 2.19053 3.12933 0.244639
1568 1 3.44227 2.19053 3.12933 0.244639
1572 1 4.06813 2.19053 3.12933 0.244639
1576 1 4.694 2.19053 3.12933 0.244639
1591 1 1.25173 2.50347 3.12933 0.244639
1595 1 1.8776 2.50347 3.12933 0.244639
1599 1 2.50347 2.50347 3.12933 0.244639
1603 1 3.12933 2.50347 3.12933 0.244639
1607 1 3.7552 2.50347 3.12933 0.244639
1611 1 4.38107 2.50347 3.12933 0.244639
1615 1 5.00693 2.50347 3.12933 0.244639
1588 1 0.9388 2.8164 3.12933 0.244639
1592 1 1.56467 2.8164 3.12933 0.244639
1596 1 2.19053 2.8164 3.12933 0.244639
1600 1 2.8164 2.8164 3.12933 0.244639
1604 1 3.44227 2.8164 3.12933 0.244639
1608 1 4.06813 2.8164 3.12933 0.244639
1612 1 4.694 2.8164 3.12933 0.244639
1627 1 1.25173 3.12933 3.12933 0.244639
1631 1 1.8776 3.12933 3.12933 0.244639
1635 1 2.50347 3.12933 3.12933 0.244639
1639 1 3.12933 3.12933 3.12933 0.244639
1643 1 3.7552 3.12933 3.12933 0.244639
1647 1 4.38107 3.12933 3.12933 0.244639
1651 1 5.00693 3.12933 3.12933 0.244639
1624 1 0.9388 3.44227 3.12933 0.244639
1628 1 1.56467 3.44227 3.12933 0.244639
1632 1 2.19053 3.44227 3.12933 0.244639
1636 1 2.8164 3.44227 3.12933 0.244639
1640 1 3.44227 3.44227 3.12933 0.244639
1644 1 4.06813 3.44227 3.12933 0.244639
1648 1 4.694 3.44227 3.12933 0.244639
1663 1 1.25173 3.7552 3.12933 0.244639
1667 1 1.8776 3.7552 3.12933 0.244639
1671 1 2.50347 3.7552 3.12933 0.244639
1675 1 3.12933 3.7552 3.12933 0.244639
1679 1 3.7552 3.7552 3.12933 0.244639
1683 1 4.38107 3.7552 3.12933 0.244639
1687 1 5.00693 3.7552 3.12933 0.244639
1664 1 1.56467 4.06813 3.12933 0.244639
1668 1 2.19053 4.06813 3.12933 0.244639
1672 1 2.8164 4.06813 3.12933 0.244639
1676 1 3.44227 4.06813 3.12933 0.244639
1680 1 4.06813 4.06813 3.12933 0.244639
1684 1 4.694 4.06813 3.12933 0.244639
1703 1 1.8776 4.38107 3.12933 0.244639
1707 1 2.50347 4.38107 3.12933 0.244639
1711 1 3.12933 4.38107 3.12933 0.244639
1715 1 3.7552 4.38107 3.12933 0.244639
1719 1 4.38107 4.38107 3.12933 0.244639
1704 1 2.19053 4.694 3.12933 0.244639
1708 1 2.8164 4.694 3.12933 0.244639
1712 1 3.44227 4.694 3.12933 0.244639
1716 1 4.06813 4.694 3.12933 0.244639
1743 1 2.50347 5.00693 3.12933 0.244639
1747 1 3.12933 5.00693 3.12933 0.244639
1494 1 2.50347 0.9388 3.44227 0.244639
1498 1 3.12933 0.9388 3.44227 0.244639
1502 1 3.7552 0.9388 3.44227 0.244639
1525 1 2.19053 1.25173 3.44227 0.244639
1529 1 2.8164 1.25173 3.44227 0.244639
1533 1 3.44227 1.25173 3.44227 0.244639
1537 1 4.06813 1.25173 3.44227 0.244639
1526 1 1.8776 1.56467 3.44227 0.244639
1530 1 2.50347 1.56467 3.44227 0.244639
1534 1 3.12933 1.56467 3.44227 0.244639
1538 1 3.7552 1.56467 3.44227 0.244639
1542 1 4.38107 1.56467 3.44227 0.244639
1557 1 1.56467 1.8776 3.44227 0.244639
1561 1 2.19053 1.8776 3.44227 0.244639
1565 1 2.8164 1.8776 3.44227 0.244639
1569 1 3.44227 1.8776 3.44227 0.244639
1573 1 4.06813 1.8776 3.44227 0.244639
1577 1 4.694 1.8776 3.44227 0.244639
1558 1 1.25173 2.19053 3.44227 0.244639
1562 1 1.8776 2.19053 3.44227 0.244639
1566 1 2.50347 2.19053 3.44227 0.244639
1570 1 3.12933 2.19053 3.44227 0.244639
1574 1 3.7552 2.19053 3.44227 0.244639
1578 1 4.38107 2.19053 3.44227 0.244639
1582 1 5.00693 2.19053 3.44227 0.244639
1593 1 1.56467 2.50347 3.44227 0.244639
1597 1 2.19053 2.50347 3.44227 0.244639
1601 1 2.8164 2.50347 3.44227 0.244639
1605 1 3.44227 2.50347 3.44227 0.244639
1609 1 4.06813 2.50347 3.44227 0.244639
1613 1 4.694 2.50347 3.44227 0.244639
1594 1 1.25173 2.8164 3.44227 0.244639
1598 1 1.8776 2.8164 3.44227 0.244639
1602 1 2.50347 2.8164 3.44227 0.244639
1606 1 3.12933 2.8164 3.44227 0.244639
1610 1 3.7552 2.8164 3.44227 0.244639
1614 1 4.38107 2.8164 3.44227 0.244639
1618 1 5.00693 2.8164 3.44227 0.244639
1625 1 0.9388 3.12933 3.44227 0.244639
1629 1 1.56467 3.12933 3.44227 0.244639
1633 1 2.19053 3.12933 3.44227 0.244639
1637 1 2.8164 3.12933 3.44227 0.244639
1641 1 3.44227 3.12933 3.44227 0.244639
1645 1 4.06813 3.12933 3.44227 0.244639
1649 1 4.694 3.12933 3.44227 0.244639
1630 1 1.25173 3.44227 3.44227 0.244639
1634 1 1.8776 3.44227 3.44227 0.244639
1638 1 2.50347 3.44227 3.44227 0.244639
1642 1 3.12933 3.44227 3.44227 0.244639
1646 1 3.7552 3.44227 3.44227 0.244639
1650 1 4.38107 3.44227 3.44227 0.244639
1654 1 5.00693 3.44227 3.44227 0.244639
1665 1 1.56467 3.7552 3.44227 0.244639
1669 1 2.19053 3.7552 3.44227 0.244639
1673 1 2.8164 3.7552 3.44227 0.244639
1677 1 3.44227 3.7552 3.44227 0.244639
1681 1 4.06813 3.7552 3.44227 0.244639
1685 1 4.694 3.7552 3.44227 0.244639
1666 1 1.25173 4.06813 3.44227 0.244639
1670 1 1.8776 4.06813 3.44227 0.244639
1674 1 2.50347 4.06813 3.44227 0.244639
1678 1 3.12933 4.06813 3.44227 0.244639
1682 1 3.7552 4.06813 3.44227 0.244639
1686 1 4.38107 4.06813 3.44227 0.244639
1701 1 1.56467 4.38107 3.44227 0.244639
1705 1 2.19053 4.38107 3.44227 0.244639
1709 1 2.8164 4.38107 3.44227 0.244639
1713 1 3.44227 4.38107 3.44227 0.244639
1717 1 4.06813 4.38107 3.44227 0.244639
1721 1 4.694 4.38107 3.44227 0.244639
1706 1 1.8776 4.694 3.44227 0.244639
1710 1 2.50347 4.694 3.44227 0.244639
1714 1 3.12933 4.694 3.44227 0.244639
1718 1 3.7552 4.694 3.44227 0.244639
1722 1 4.38107 4.694 3.44227 0.244639
1741 1 2.19053 5.00693 3.44227 0.244639
1745 1 2.8164 5.00693 3.44227 0.244639
1816 1 2.8164 0.9388 3.7552 0.244639
1820 1 3.44227 0.9388 3.7552 0.244639
1851 1 2.50347 1.25173 3.7552 0.244639
1855 1 3.12933 1.25173 3.7552 0.244639
1859 1 3.7552 1.25173 3.7552 0.244639
1844 1 1.56467 1.56467 3.7552 0.244639
1848 1 2.19053 1.56467 3.7552 0.244639
1852 1 2.8164 1.56467 3.7552 0.244639
1856 1 3.44227 1.56467 3.7552 0.244639
1860 1 4.06813 1.56467 3.7552 0.244639
1879 1 1.25173 1.8776 3.7552 0.244639
1883 1 1.8776 1.8776 3.7552 0.244639
1887 1 2.50347 1.8776 3.7552 0.244639
1891 1 3.12933 1.8776 3.7552 0.244639
1895 1 3.7552 1.8776 3.7552 0.244639
1899 1 4.38107 1.8776 3.7552 0.244639
1880 1 1.56467 2.19053 3.7552 0.244639
1884 1 2.19053 2.19053 3.7552 0.244639
1888 1 2.8164 2.19053 3.7552 0.244639
1892 1 3.44227 2.19053 3.7552 0.244639
1896 1 4.06813 2.19053 3.7552 0.244639
1900 1 4.694 2.19053 3.7552 0.244639
1915 1 1.25173 2.50347 3.7552 0.244639
1919 1 1.8776 2.50347 3.7552 0.244639
1923 1 2.50347 2.50347 3.7552 0.244639
1927 1 3.12933 2.50347 3.7552 0.244639
1931 1 3.7552 2.50347 3.7552 0.244639
1935 1 4.38107 2.50347 3.7552 0.244639
1939 1 5.00693 2.50347 3.7552 0.244639
1916 1 1.56467 2.8164 3.7552 0.244639
1920 1 2.19053 2.8164 3.7552 0.244639
1924 1 2.8164 2.8164 3.7552 0.244639
1928 1 3.44227 2.8164 3.7552 0.244639
1932 1 4.06813 2.8164 3.7552 0.244639
1936 1 4.694 2.8164 3.7552 0.244639
1951 1 1.25173 3.12933 3.7552 0.244639
1955 1 1.8776 3.12933 3.7552 0.244639
1959 1 2.50347 3.12933 3.7552 0.244639
1963 1 3.12933 3.12933 3.7552 0.244639
1967 1 3.7552 3.12933 3.7552 0.244639
1971 1 4.38107 3.12933 3.7552 0.244639
1975 1 5.00693 3.12933 3.7552 0.244639
1952 1 1.56467 3.44227 3.7552 0.244639
1956 1 2.19053 3.44227 3.7552 0.244639
1960 1 2.8164 3.44227 3.7552 0.244639
1964 1 3.44227 3.44227 3.7552 0.244639
1968 1 4.06813 3.44227 3.7552 0.244639
1972 1 4.694 3.44227 3.7552 0.244639
1987 1 1.25173 3.7552 3.7552 0.244639
1991 1 1.8776 3.7552 3.7552 0.244639
1995 1 2.50347 3.7552 3.7552 0.244639
1999 1 3.12933 3.7552 3.7552 0.244639
2003 1 3.7552 3.7552 3.7552 0.244639
2007 1 4.38107 3.7552 3.7552 0.244639
2011 1 5.00693 3.7552 3.7552 0.244639
1988 1 1.56467 4.06813 3.7552 0.244639
1992 1 2.19053 4.06813 3.7552 0.244639
1996 1 2.8164 4.06813 3.7552 0.244639
2000 1 3.44227 4.06813 3.7552 0.244639
2004 1 4.06813 4.06813 3.7552 0.244639
2008 1 4.694 4.06813 3.7552 0.244639
2027 1 1.8776 4.38107 3.7552 0.244639
2031 1 2.50347 4.38107 3.7552 0.244639
2035 1 3.12933 4.38107 3.7552 0.244639
2039 1 3.7552 4.38107 3.7552 0.244639
2043 1 4.38107 4.38107 3.7552 0.244639
2028 1 2.19053 4.694 3.7552 0.244639
2032 1 2.8164 4.694 3.7552 0.244639
2036 1 3.44227 4.694 3.7552 0.244639
2040 1 4.06813 4.694 3.7552 0.244639
1853 1 2.8164 1.25173 4.06813 0.244639
1857 1 3.44227 1.25173 4.06813 0.244639
1850 1 1.8776 1.56467 4.06813 0.244639
1854 1 2.50347 1.56467 4.06813 0.244639
1858 1 3.12933 1.56467 4.06813 0.244639
1862 1 3.7552 1.56467 4.06813 0.244639
1881 1 1.56467 1.8776 4.06813 0.244639
1885 1 2.19053 1.8776 4.06813 0.244639
1889 1 2.8164 1.8776 4.06813 0.244639
1893 1 3.44227 1.8776 4.06813 0.244639
1897 1 4.06813 1.8776 4.06813 0.244639
1882 1 1.25173 2.19053 4.06813 0.244639
1886 1 1.8776 2.19053 4.06813 0.244639
1890 1 2.50347 2.19053 4.06813 0.244639
1894 1 3.12933 2.19053 4.06813 0.244639
1898 1 3.7552 2.19053 4.06813 0.244639
1902 1 4.38107 2.19053 4.06813 0.244639
1917 1 1.56467 2.50347 4.06813 0.244639
1921 1 2.19053 2.50347 4.06813 0.244639
1925 1 2.8164 2.50347 4.06813 0.244639
1929 1 3.44227 2.50347 4.06813 0.244639
1933 1 4.06813 2.50347 4.06813 0.244639
1937 1 4.694 2.50347 4.06813 0.244639
1922 1 1.8776 2.8164 4.06813 0.244639
1926 1 2.50347 2.8164 4.06813 0.244639
1930 1 3.12933 2.8164 4.06813 0.244639
1934 1 3.7552 2.8164 4.06813 0.244639
1938 1 4.38107 2.8164 4.06813 0.244639
1953 1 1.56467 3.12933 4.06813 0.244639
1957 1 2.19053 3.12933 4.06813 0.244639
1961 1 2.8164 3.12933 4.06813 0.244639
1965 1 3.44227 3.12933 4.06813 0.244639
1969 1 4.06813 3.12933 4.06813 0.244639
1973 1 4.694 3.12933 4.06813 0.244639
1954 1 1.25173 3.44227 4.06813 0.244639
1958 1 1.8776 3.44227 4.06813 0.244639
1962 1 2.50347 3.44227 4.06813 0.244639
1966 1 3.12933 3.44227 4.06813 0.244639
1970 1 3.7552 3.44227 4.06813 0.244639
1974 1 4.38107 3.44227 4.06813 0.244639
1978 1 5.00693 3.44227 4.06813 0.244639
1989 1 1.56467 3.7552 4.06813 0.244639
1993 1 2.19053 3.7552 4.06813 0.244639
1997 1 2.8164 3.7552 4.06813 0.244639
2001 1 3.44227 3.7552 4.06813 0.244639
2005 1 4.06813 3.7552 4.06813 0.244639
2009 1 4.694 3.7552 4.06813 0.244639
1994 1 1.8776 4.06813 4.06813 0.244639
1998 1 2.50347 4.06813 4.06813 0.244639
2002 1 3.12933 4.06813 4.06813 0.244639
2006 1 3.7552 4.06813 4.06813 0.244639
2010 1 4.38107 4.06813 4.06813 0.244639
2029 1 2.19053 4.38107 4.06813 0.244639
2033 1 2.8164 4.38107 4.06813 0.244639
2037 1 3.44227 4.38107 4.06813 0.244639
2041 1 4.06813 4.38107 4.06813 0.244639
2034 1 2.50347 4.694 4.06813 0.244639
2038 1 3.12933 4.694 4.06813 0.244639
2042 1 3.7552 4.694 4.06813 0.244639
2179 1 3.12933 1.25173 4.38107 0.244639
2172 1 2.19053 1.56467 4.38107 0.244639
2176 1 2.8164 1.56467 4.38107 0.244639
2180 1 3.44227 1.56467 4.38107 0.244639
2207 1 1.8776 1.8776 4.38107 0.244639
2211 1 2.50347 1.8776 4.38107 0.244639
2215 1 3.12933 1.8776 4.38107 0.244639
2219 1 3.7552 1.8776 4.38107 0.244639
2204 1 1.56467 2.19053 4.38107 0.244639
2208 1 2.19053 2.19053 4.38107 0.244639
2212 1 2.8164 2.19053 4.38107 0.244639
2216 1 3.44227 2.19053 4.38107 0.244639
2220 1 4.06813 2.19053 4.38107 0.244639
2243 1 1.8776 2.50347 4.38107 0.244639
2247 1 2.50347 2.50347 4.38107 0.244639
2251 1 3.12933 2.50347 4.38107 0.244639
2255 1 3.7552 2.50347 4.38107 0.244639
2240 1 1.56467 2.8164 4.38107 0.244639
2244 1 2.19053 2.8164 4.38107 0.244639
2248 1 2.8164 2.8164 4.38107 0.244639
2252 1 3.44227 2.8164 4.38107 0.244639
2256 1 4.06813 2.8164 4.38107 0.244639
2279 1 1.8776 3.12933 4.38107 0.244639
2283 1 2.50347 3.12933 4.38107 0.244639
2287 1 3.12933 3.12933 4.38107 0.244639
2291 1 3.7552 3.12933 4.38107 0.244639
2295 1 4.38107 3.12933 4.38107 0.244639
2276 1 1.56467 3.44227 4.38107 0.244639
2280 1 2.19053 3.44227 4.38107 0.244639
2284 1 2.8164 3.44227 4.38107 0.244639
2288 1 3.44227 3.44227 4.38107 0.244639
2292 1 4.06813 3.44227 4.38107 0.244639
2296 1 4.694 3.44227 4.38107 0.244639
2315 1 1.8776 3.7552 4.38107 0.244639
2319 1 2.50347 3.7552 4.38107 0.244639
2323 1 3.12933 3.7552 4.38107 0.244639
2327 1 3.7552 3.7552 4.38107 0.244639
2331 1 4.38107 3.7552 4.38107 0.244639
2316 1 2.19053 4.06813 4.38107 0.244639
2320 1 2.8164 4.06813 4.38107 0.244639
2324 1 3.44227 4.06813 4.38107 0.244639
2328 1 4.06813 4.06813 4.38107 0.244639
2355 1 2.50347 4.38107 4.38107 0.244639
2359 1 3.12933 4.38107 4.38107 0.244639
2363 1 3.7552 4.38107 4.38107 0.244639
2182 1 3.12933 1.56467 4.694 0.244639
2209 1 2.19053 1.8776 4.694 0.244639
2213 1 2.8164 1.8776 4.694 0.244639
2217 1 3.44227 1.8776 4.694 0.244639
2210 1 1.8776 2.19053 4.694 0.244639
2214 1 2.50347 2.19053 4.694 0.244639
2218 1 3.12933 2.19053 4.694 0.244639
2222 1 3.7552 2.19053 4.694 0.244639
2241 1 1.56467 2.50347 4.694 0.244639
2245 1 2.19053 2.50347 4.694 0.244639
2249 1 2.8164 2.50347 4.694 0.244639
2253 1 3.44227 2.50347 4.694 0.244639
2246 1 1.8776 2.8164 4.694 0.244639
2250 1 2.50347 2.8164 4.694 0.244639
2254 1 3.12933 2.8164 4.694 0.244639
2258 1 3.7552 2.8164 4.694 0.244639
2281 1 2.19053 3.12933 4.694 0.244639
2285 1 2.8164 3.12933 4.694 0.244639
2289 1 3.44227 3.12933 4.694 0.244639
2293 1 4.06813 3.12933 4.694 0.244639
2282 1 1.8776 3.44227 4.694 0.244639
2286 1 2.50347 3.44227 4.694 0.244639
2290 1 3.12933 3.44227 4.694 0.244639
2294 1 3.7552 3.44227 4.694 0.244639
2298 1 4.38107 3.44227 4.694 0.244639
2317 1 2.19053 3.7552 4.694 0.244639
2321 1 2.8164 3.7552 4.694 0.244639
2325 1 3.44227 3.7552 4.694 0.244639
2329 1 4.06813 3.7552 4.694 0.244639
2322 1 2.50347 4.06813 4.694 0.244639
2326 1 3.12933 4.06813 4.694 0.244639
2330 1 3.7552 4.06813 4.694 0.244639
2532 1 2.19053 2.19053 5.00693 0.244639
2567 1 1.8776 2.50347 5.00693 0.244639
2571 1 2.50347 2.50347 5.00693 0.244639
2575 1 3.12933 2.50347 5.00693 0.244639
2568 1 2.19053 2.8164 5.00693 0.244639
2572 1 2.8164 2.8164 5.00693 0.244639
2576 1 3.44227 2.8164 5.00693 0.244639
2607 1 2.50347 3.12933 5.00693 0.244639
2611 1 3.12933 3.12933 5.00693 0.244639
2608 1 2.8164 3.44227 5.00693 0.244639
