ITEM: TIMESTEP
0
ITEM: NUMBER OF ATOMS
2916
ITEM: BOX BOUNDS pp pp pp
0.0000000000000000e+00 6.2586658032787401e+00
0.0000000000000000e+00 6.2586658032787401e+00
0.0000000000000000e+00 6.2586658032787401e+00
ITEM: ATOMS id type x y z radius 
1 1 0.625867 0.312933 0.312933 0.244639 
2 1 1.25173 0.312933 0.312933 0.244639 
3 1 1.8776 0.312933 0.312933 0.244639 
4 1 2.50347 0.312933 0.312933 0.244639 
5 1 3.12933 0.312933 0.312933 0.244639 
6 1 3.7552 0.312933 0.312933 0.244639 
7 1 4.38107 0.312933 0.312933 0.244639 
8 1 5.00693 0.312933 0.312933 0.244639 
9 1 5.6328 0.312933 0.312933 0.244639 
10 1 0.312933 0.625867 0.312933 0.244639 
11 1 0.9388 0.625867 0.312933 0.244639 
13 1 1.56467 0.625867 0.312933 0.244639 
15 1 2.19053 0.625867 0.312933 0.244639 
17 1 2.8164 0.625867 0.312933 0.244639 
19 1 3.44227 0.625867 0.312933 0.244639 
21 1 4.06813 0.625867 0.312933 0.244639 
23 1 4.694 0.625867 0.312933 0.244639 
25 1 5.31987 0.625867 0.312933 0.244639 
12 1 0.625867 0.9388 0.312933 0.244639 
14 1 1.25173 0.9388 0.312933 0.244639 
16 1 1.8776 0.9388 0.312933 0.244639 
18 1 2.50347 0.9388 0.312933 0.244639 
20 1 3.12933 0.9388 0.312933 0.244639 
22 1 3.7552 0.9388 0.312933 0.244639 
24 1 4.38107 0.9388 0.312933 0.244639 
26 1 5.00693 0.9388 0.312933 0.244639 
27 1 5.6328 0.9388 0.312933 0.244639 
28 1 0.312933 1.25173 0.312933 0.244639 
29 1 0.9388 1.25173 0.312933 0.244639 
31 1 1.56467 1.25173 0.312933 0.244639 
33 1 2.19053 1.25173 0.312933 0.244639 
35 1 2.8164 1.25173 0.312933 0.244639 
37 1 3.44227 1.25173 0.312933 0.244639 
39 1 4.06813 1.25173 0.312933 0.244639 
41 1 4.694 1.25173 0.312933 0.244639 
43 1 5.31987 1.25173 0.312933 0.244639 
30 1 0.625867 1.56467 0.312933 0.244639 
32 1 1.25173 1.56467 0.312933 0.244639 
34 1 1.8776 1.56467 0.312933 0.244639 
36 1 2.50347 1.56467 0.312933 0.244639 
38 1 3.12933 1.56467 0.312933 0.244639 
40 1 3.7552 1.56467 0.312933 0.244639 
42 1 4.38107 1.56467 0.312933 0.244639 
44 1 5.00693 1.56467 0.312933 0.244639 
45 1 5.6328 1.56467 0.312933 0.244639 
46 1 0.312933 1.8776 0.312933 0.244639 
47 1 0.9388 1.8776 0.312933 0.244639 
49 1 1.56467 1.8776 0.312933 0.244639 
51 1 2.19053 1.8776 0.312933 0.244639 
53 1 2.8164 1.8776 0.312933 0.244639 
55 1 3.44227 1.8776 0.312933 0.244639 
57 1 4.06813 1.8776 0.312933 0.244639 
59 1 4.694 1.8776 0.312933 0.244639 
61 1 5.31987 1.8776 0.312933 0.244639 
48 1 0.625867 2.19053 0.312933 0.244639 
50 1 1.25173 2.19053 0.312933 0.244639 
52 1 1.8776 2.19053 0.312933 0.244639 
54 1 2.50347 2.19053 0.312933 0.244639 
56 1 3.12933 2.19053 0.312933 0.244639 
58 1 3.7552 2.19053 0.312933 0.244639 
60 1 4.38107 2.19053 0.312933 0.244639 
62 1 5.00693 2.19053 0.312933 0.244639 
63 1 5.6328 2.19053 0.312933 0.244639 
64 1 0.312933 2.50347 0.312933 0.244639 
65 1 0.9388 2.50347 0.312933 0.244639 
67 1 1.56467 2.50347 0.312933 0.244639 
69 1 2.19053 2.50347 0.312933 0.244639 
71 1 2.8164 2.50347 0.312933 0.244639 
73 1 3.44227 2.50347 0.312933 0.244639 
75 1 4.06813 2.50347 0.312933 0.244639 
77 1 4.694 2.50347 0.312933 0.244639 
79 1 5.31987 2.50347 0.312933 0.244639 
66 1 0.625867 2.8164 0.312933 0.244639 
68 1 1.25173 2.8164 0.312933 0.244639 
70 1 1.8776 2.8164 0.312933 0.244639 
72 1 2.50347 2.8164 0.312933 0.244639 
74 1 3.12933 2.8164 0.312933 0.244639 
76 1 3.7552 2.8164 0.312933 0.244639 
78 1 4.38107 2.8164 0.312933 0.244639 
80 1 5.00693 2.8164 0.312933 0.244639 
81 1 5.6328 2.8164 0.312933 0.244639 
82 1 0.312933 3.12933 0.312933 0.244639 
83 1 0.9388 3.12933 0.312933 0.244639 
85 1 1.56467 3.12933 0.312933 0.244639 
87 1 2.19053 3.12933 0.312933 0.244639 
89 1 2.8164 3.12933 0.312933 0.244639 
91 1 3.44227 3.12933 0.312933 0.244639 
93 1 4.06813 3.12933 0.312933 0.244639 
95 1 4.694 3.12933 0.312933 0.244639 
97 1 5.31987 3.12933 0.312933 0.244639 
84 1 0.625867 3.44227 0.312933 0.244639 
86 1 1.25173 3.44227 0.312933 0.244639 
88 1 1.8776 3.44227 0.312933 0.244639 
90 1 2.50347 3.44227 0.312933 0.244639 
92 1 3.12933 3.44227 0.312933 0.244639 
94 1 3.7552 3.44227 0.312933 0.244639 
96 1 4.38107 3.44227 0.312933 0.244639 
98 1 5.00693 3.44227 0.312933 0.244639 
99 1 5.6328 3.44227 0.312933 0.244639 
100 1 0.312933 3.7552 0.312933 0.244639 
101 1 0.9388 3.7552 0.312933 0.244639 
103 1 1.56467 3.7552 0.312933 0.244639 
105 1 2.19053 3.7552 0.312933 0.244639 
107 1 2.8164 3.7552 0.312933 0.244639 
109 1 3.44227 3.7552 0.312933 0.244639 
111 1 4.06813 3.7552 0.312933 0.244639 
113 1 4.694 3.7552 0.312933 0.244639 
115 1 5.31987 3.7552 0.312933 0.244639 
102 1 0.625867 4.06813 0.312933 0.244639 
104 1 1.25173 4.06813 0.312933 0.244639 
106 1 1.8776 4.06813 0.312933 0.244639 
108 1 2.50347 4.06813 0.312933 0.244639 
110 1 3.12933 4.06813 0.312933 0.244639 
112 1 3.7552 4.06813 0.312933 0.244639 
114 1 4.38107 4.06813 0.312933 0.244639 
116 1 5.00693 4.06813 0.312933 0.244639 
117 1 5.6328 4.06813 0.312933 0.244639 
118 1 0.312933 4.38107 0.312933 0.244639 
119 1 0.9388 4.38107 0.312933 0.244639 
121 1 1.56467 4.38107 0.312933 0.244639 
123 1 2.19053 4.38107 0.312933 0.244639 
125 1 2.8164 4.38107 0.312933 0.244639 
127 1 3.44227 4.38107 0.312933 0.244639 
129 1 4.06813 4.38107 0.312933 0.244639 
131 1 4.694 4.38107 0.312933 0.244639 
133 1 5.31987 4.38107 0.312933 0.244639 
120 1 0.625867 4.694 0.312933 0.244639 
122 1 1.25173 4.694 0.312933 0.244639 
124 1 1.8776 4.694 0.312933 0.244639 
126 1 2.50347 4.694 0.312933 0.244639 
128 1 3.12933 4.694 0.312933 0.244639 
130 1 3.7552 4.694 0.312933 0.244639 
132 1 4.38107 4.694 0.312933 0.244639 
134 1 5.00693 4.694 0.312933 0.244639 
135 1 5.6328 4.694 0.312933 0.244639 
136 1 0.312933 5.00693 0.312933 0.244639 
137 1 0.9388 5.00693 0.312933 0.244639 
139 1 1.56467 5.00693 0.312933 0.244639 
141 1 2.19053 5.00693 0.312933 0.244639 
143 1 2.8164 5.00693 0.312933 0.244639 
145 1 3.44227 5.00693 0.312933 0.244639 
147 1 4.06813 5.00693 0.312933 0.244639 
149 1 4.694 5.00693 0.312933 0.244639 
151 1 5.31987 5.00693 0.312933 0.244639 
138 1 0.625867 5.31987 0.312933 0.244639 
140 1 1.25173 5.31987 0.312933 0.244639 
142 1 1.8776 5.31987 0.312933 0.244639 
144 1 2.50347 5.31987 0.312933 0.244639 
146 1 3.12933 5.31987 0.312933 0.244639 
148 1 3.7552 5.31987 0.312933 0.244639 
150 1 4.38107 5.31987 0.312933 0.244639 
152 1 5.00693 5.31987 0.312933 0.244639 
153 1 5.6328 5.31987 0.312933 0.244639 
154 1 0.312933 5.6328 0.312933 0.244639 
155 1 0.9388 5.6328 0.312933 0.244639 
156 1 1.56467 5.6328 0.312933 0.244639 
157 1 2.19053 5.6328 0.312933 0.244639 
158 1 2.8164 5.6328 0.312933 0.244639 
159 1 3.44227 5.6328 0.312933 0.244639 
160 1 4.06813 5.6328 0.312933 0.244639 
161 1 4.694 5.6328 0.312933 0.244639 
162 1 5.31987 5.6328 0.312933 0.244639 
163 1 0.312933 0.312933 0.625867 0.244639 
164 1 0.9388 0.312933 0.625867 0.244639 
166 1 1.56467 0.312933 0.625867 0.244639 
168 1 2.19053 0.312933 0.625867 0.244639 
170 1 2.8164 0.312933 0.625867 0.244639 
172 1 3.44227 0.312933 0.625867 0.244639 
174 1 4.06813 0.312933 0.625867 0.244639 
176 1 4.694 0.312933 0.625867 0.244639 
178 1 5.31987 0.312933 0.625867 0.244639 
183 1 0.625867 0.625867 0.625867 0.244639 
187 1 1.25173 0.625867 0.625867 0.244639 
191 1 1.8776 0.625867 0.625867 0.244639 
195 1 2.50347 0.625867 0.625867 0.244639 
199 1 3.12933 0.625867 0.625867 0.244639 
203 1 3.7552 0.625867 0.625867 0.244639 
207 1 4.38107 0.625867 0.625867 0.244639 
211 1 5.00693 0.625867 0.625867 0.244639 
215 1 5.6328 0.625867 0.625867 0.244639 
181 1 0.312933 0.9388 0.625867 0.244639 
184 1 0.9388 0.9388 0.625867 0.244639 
188 1 1.56467 0.9388 0.625867 0.244639 
192 1 2.19053 0.9388 0.625867 0.244639 
196 1 2.8164 0.9388 0.625867 0.244639 
200 1 3.44227 0.9388 0.625867 0.244639 
204 1 4.06813 0.9388 0.625867 0.244639 
208 1 4.694 0.9388 0.625867 0.244639 
212 1 5.31987 0.9388 0.625867 0.244639 
219 1 0.625867 1.25173 0.625867 0.244639 
223 1 1.25173 1.25173 0.625867 0.244639 
227 1 1.8776 1.25173 0.625867 0.244639 
231 1 2.50347 1.25173 0.625867 0.244639 
235 1 3.12933 1.25173 0.625867 0.244639 
239 1 3.7552 1.25173 0.625867 0.244639 
243 1 4.38107 1.25173 0.625867 0.244639 
247 1 5.00693 1.25173 0.625867 0.244639 
251 1 5.6328 1.25173 0.625867 0.244639 
217 1 0.312933 1.56467 0.625867 0.244639 
220 1 0.9388 1.56467 0.625867 0.244639 
224 1 1.56467 1.56467 0.625867 0.244639 
228 1 2.19053 1.56467 0.625867 0.244639 
232 1 2.8164 1.56467 0.625867 0.244639 
236 1 3.44227 1.56467 0.625867 0.244639 
240 1 4.06813 1.56467 0.625867 0.244639 
244 1 4.694 1.56467 0.625867 0.244639 
248 1 5.31987 1.56467 0.625867 0.244639 
255 1 0.625867 1.8776 0.625867 0.244639 
259 1 1.25173 1.8776 0.625867 0.244639 
263 1 1.8776 1.8776 0.625867 0.244639 
267 1 2.50347 1.8776 0.625867 0.244639 
271 1 3.12933 1.8776 0.625867 0.244639 
275 1 3.7552 1.8776 0.625867 0.244639 
279 1 4.38107 1.8776 0.625867 0.244639 
283 1 5.00693 1.8776 0.625867 0.244639 
287 1 5.6328 1.8776 0.625867 0.244639 
253 1 0.312933 2.19053 0.625867 0.244639 
256 1 0.9388 2.19053 0.625867 0.244639 
260 1 1.56467 2.19053 0.625867 0.244639 
264 1 2.19053 2.19053 0.625867 0.244639 
268 1 2.8164 2.19053 0.625867 0.244639 
272 1 3.44227 2.19053 0.625867 0.244639 
276 1 4.06813 2.19053 0.625867 0.244639 
280 1 4.694 2.19053 0.625867 0.244639 
284 1 5.31987 2.19053 0.625867 0.244639 
291 1 0.625867 2.50347 0.625867 0.244639 
295 1 1.25173 2.50347 0.625867 0.244639 
299 1 1.8776 2.50347 0.625867 0.244639 
303 1 2.50347 2.50347 0.625867 0.244639 
307 1 3.12933 2.50347 0.625867 0.244639 
311 1 3.7552 2.50347 0.625867 0.244639 
315 1 4.38107 2.50347 0.625867 0.244639 
319 1 5.00693 2.50347 0.625867 0.244639 
323 1 5.6328 2.50347 0.625867 0.244639 
289 1 0.312933 2.8164 0.625867 0.244639 
292 1 0.9388 2.8164 0.625867 0.244639 
296 1 1.56467 2.8164 0.625867 0.244639 
300 1 2.19053 2.8164 0.625867 0.244639 
304 1 2.8164 2.8164 0.625867 0.244639 
308 1 3.44227 2.8164 0.625867 0.244639 
312 1 4.06813 2.8164 0.625867 0.244639 
316 1 4.694 2.8164 0.625867 0.244639 
320 1 5.31987 2.8164 0.625867 0.244639 
327 1 0.625867 3.12933 0.625867 0.244639 
331 1 1.25173 3.12933 0.625867 0.244639 
335 1 1.8776 3.12933 0.625867 0.244639 
339 1 2.50347 3.12933 0.625867 0.244639 
343 1 3.12933 3.12933 0.625867 0.244639 
347 1 3.7552 3.12933 0.625867 0.244639 
351 1 4.38107 3.12933 0.625867 0.244639 
355 1 5.00693 3.12933 0.625867 0.244639 
359 1 5.6328 3.12933 0.625867 0.244639 
325 1 0.312933 3.44227 0.625867 0.244639 
328 1 0.9388 3.44227 0.625867 0.244639 
332 1 1.56467 3.44227 0.625867 0.244639 
336 1 2.19053 3.44227 0.625867 0.244639 
340 1 2.8164 3.44227 0.625867 0.244639 
344 1 3.44227 3.44227 0.625867 0.244639 
348 1 4.06813 3.44227 0.625867 0.244639 
352 1 4.694 3.44227 0.625867 0.244639 
356 1 5.31987 3.44227 0.625867 0.244639 
363 1 0.625867 3.7552 0.625867 0.244639 
367 1 1.25173 3.7552 0.625867 0.244639 
371 1 1.8776 3.7552 0.625867 0.244639 
375 1 2.50347 3.7552 0.625867 0.244639 
379 1 3.12933 3.7552 0.625867 0.244639 
383 1 3.7552 3.7552 0.625867 0.244639 
387 1 4.38107 3.7552 0.625867 0.244639 
391 1 5.00693 3.7552 0.625867 0.244639 
395 1 5.6328 3.7552 0.625867 0.244639 
361 1 0.312933 4.06813 0.625867 0.244639 
364 1 0.9388 4.06813 0.625867 0.244639 
368 1 1.56467 4.06813 0.625867 0.244639 
372 1 2.19053 4.06813 0.625867 0.244639 
376 1 2.8164 4.06813 0.625867 0.244639 
380 1 3.44227 4.06813 0.625867 0.244639 
384 1 4.06813 4.06813 0.625867 0.244639 
388 1 4.694 4.06813 0.625867 0.244639 
392 1 5.31987 4.06813 0.625867 0.244639 
399 1 0.625867 4.38107 0.625867 0.244639 
403 1 1.25173 4.38107 0.625867 0.244639 
407 1 1.8776 4.38107 0.625867 0.244639 
411 1 2.50347 4.38107 0.625867 0.244639 
415 1 3.12933 4.38107 0.625867 0.244639 
419 1 3.7552 4.38107 0.625867 0.244639 
423 1 4.38107 4.38107 0.625867 0.244639 
427 1 5.00693 4.38107 0.625867 0.244639 
431 1 5.6328 4.38107 0.625867 0.244639 
397 1 0.312933 4.694 0.625867 0.244639 
400 1 0.9388 4.694 0.625867 0.244639 
404 1 1.56467 4.694 0.625867 0.244639 
408 1 2.19053 4.694 0.625867 0.244639 
412 1 2.8164 4.694 0.625867 0.244639 
416 1 3.44227 4.694 0.625867 0.244639 
420 1 4.06813 4.694 0.625867 0.244639 
424 1 4.694 4.694 0.625867 0.244639 
428 1 5.31987 4.694 0.625867 0.244639 
435 1 0.625867 5.00693 0.625867 0.244639 
439 1 1.25173 5.00693 0.625867 0.244639 
443 1 1.8776 5.00693 0.625867 0.244639 
447 1 2.50347 5.00693 0.625867 0.244639 
451 1 3.12933 5.00693 0.625867 0.244639 
455 1 3.7552 5.00693 0.625867 0.244639 
459 1 4.38107 5.00693 0.625867 0.244639 
463 1 5.00693 5.00693 0.625867 0.244639 
467 1 5.6328 5.00693 0.625867 0.244639 
433 1 0.312933 5.31987 0.625867 0.244639 
436 1 0.9388 5.31987 0.625867 0.244639 
440 1 1.56467 5.31987 0.625867 0.244639 
444 1 2.19053 5.31987 0.625867 0.244639 
448 1 2.8164 5.31987 0.625867 0.244639 
452 1 3.44227 5.31987 0.625867 0.244639 
456 1 4.06813 5.31987 0.625867 0.244639 
460 1 4.694 5.31987 0.625867 0.244639 
464 1 5.31987 5.31987 0.625867 0.244639 
470 1 0.625867 5.6328 0.625867 0.244639 
472 1 1.25173 5.6328 0.625867 0.244639 
474 1 1.8776 5.6328 0.625867 0.244639 
476 1 2.50347 5.6328 0.625867 0.244639 
478 1 3.12933 5.6328 0.625867 0.244639 
480 1 3.7552 5.6328 0.625867 0.244639 
482 1 4.38107 5.6328 0.625867 0.244639 
484 1 5.00693 5.6328 0.625867 0.244639 
486 1 5.6328 5.6328 0.625867 0.244639 
165 1 0.625867 0.312933 0.9388 0.244639 
167 1 1.25173 0.312933 0.9388 0.244639 
169 1 1.8776 0.312933 0.9388 0.244639 
171 1 2.50347 0.312933 0.9388 0.244639 
173 1 3.12933 0.312933 0.9388 0.244639 
175 1 3.7552 0.312933 0.9388 0.244639 
177 1 4.38107 0.312933 0.9388 0.244639 
179 1 5.00693 0.312933 0.9388 0.244639 
180 1 5.6328 0.312933 0.9388 0.244639 
182 1 0.312933 0.625867 0.9388 0.244639 
185 1 0.9388 0.625867 0.9388 0.244639 
189 1 1.56467 0.625867 0.9388 0.244639 
193 1 2.19053 0.625867 0.9388 0.244639 
197 1 2.8164 0.625867 0.9388 0.244639 
201 1 3.44227 0.625867 0.9388 0.244639 
205 1 4.06813 0.625867 0.9388 0.244639 
209 1 4.694 0.625867 0.9388 0.244639 
213 1 5.31987 0.625867 0.9388 0.244639 
186 1 0.625867 0.9388 0.9388 0.244639 
190 1 1.25173 0.9388 0.9388 0.244639 
194 1 1.8776 0.9388 0.9388 0.244639 
198 1 2.50347 0.9388 0.9388 0.244639 
202 1 3.12933 0.9388 0.9388 0.244639 
206 1 3.7552 0.9388 0.9388 0.244639 
210 1 4.38107 0.9388 0.9388 0.244639 
214 1 5.00693 0.9388 0.9388 0.244639 
216 1 5.6328 0.9388 0.9388 0.244639 
218 1 0.312933 1.25173 0.9388 0.244639 
221 1 0.9388 1.25173 0.9388 0.244639 
225 1 1.56467 1.25173 0.9388 0.244639 
229 1 2.19053 1.25173 0.9388 0.244639 
233 1 2.8164 1.25173 0.9388 0.244639 
237 1 3.44227 1.25173 0.9388 0.244639 
241 1 4.06813 1.25173 0.9388 0.244639 
245 1 4.694 1.25173 0.9388 0.244639 
249 1 5.31987 1.25173 0.9388 0.244639 
222 1 0.625867 1.56467 0.9388 0.244639 
226 1 1.25173 1.56467 0.9388 0.244639 
230 1 1.8776 1.56467 0.9388 0.244639 
234 1 2.50347 1.56467 0.9388 0.244639 
238 1 3.12933 1.56467 0.9388 0.244639 
242 1 3.7552 1.56467 0.9388 0.244639 
246 1 4.38107 1.56467 0.9388 0.244639 
250 1 5.00693 1.56467 0.9388 0.244639 
252 1 5.6328 1.56467 0.9388 0.244639 
254 1 0.312933 1.8776 0.9388 0.244639 
257 1 0.9388 1.8776 0.9388 0.244639 
261 1 1.56467 1.8776 0.9388 0.244639 
265 1 2.19053 1.8776 0.9388 0.244639 
269 1 2.8164 1.8776 0.9388 0.244639 
273 1 3.44227 1.8776 0.9388 0.244639 
277 1 4.06813 1.8776 0.9388 0.244639 
281 1 4.694 1.8776 0.9388 0.244639 
285 1 5.31987 1.8776 0.9388 0.244639 
258 1 0.625867 2.19053 0.9388 0.244639 
262 1 1.25173 2.19053 0.9388 0.244639 
266 1 1.8776 2.19053 0.9388 0.244639 
270 1 2.50347 2.19053 0.9388 0.244639 
274 1 3.12933 2.19053 0.9388 0.244639 
278 1 3.7552 2.19053 0.9388 0.244639 
282 1 4.38107 2.19053 0.9388 0.244639 
286 1 5.00693 2.19053 0.9388 0.244639 
288 1 5.6328 2.19053 0.9388 0.244639 
290 1 0.312933 2.50347 0.9388 0.244639 
293 1 0.9388 2.50347 0.9388 0.244639 
297 1 1.56467 2.50347 0.9388 0.244639 
301 1 2.19053 2.50347 0.9388 0.244639 
305 1 2.8164 2.50347 0.9388 0.244639 
309 1 3.44227 2.50347 0.9388 0.244639 
313 1 4.06813 2.50347 0.9388 0.244639 
317 1 4.694 2.50347 0.9388 0.244639 
321 1 5.31987 2.50347 0.9388 0.244639 
294 1 0.625867 2.8164 0.9388 0.244639 
298 1 1.25173 2.8164 0.9388 0.244639 
302 1 1.8776 2.8164 0.9388 0.244639 
306 1 2.50347 2.8164 0.9388 0.244639 
310 1 3.12933 2.8164 0.9388 0.244639 
314 1 3.7552 2.8164 0.9388 0.244639 
318 1 4.38107 2.8164 0.9388 0.244639 
322 1 5.00693 2.8164 0.9388 0.244639 
324 1 5.6328 2.8164 0.9388 0.244639 
326 1 0.312933 3.12933 0.9388 0.244639 
329 1 0.9388 3.12933 0.9388 0.244639 
333 1 1.56467 3.12933 0.9388 0.244639 
337 1 2.19053 3.12933 0.9388 0.244639 
341 1 2.8164 3.12933 0.9388 0.244639 
345 1 3.44227 3.12933 0.9388 0.244639 
349 1 4.06813 3.12933 0.9388 0.244639 
353 1 4.694 3.12933 0.9388 0.244639 
357 1 5.31987 3.12933 0.9388 0.244639 
330 1 0.625867 3.44227 0.9388 0.244639 
334 1 1.25173 3.44227 0.9388 0.244639 
338 1 1.8776 3.44227 0.9388 0.244639 
342 1 2.50347 3.44227 0.9388 0.244639 
346 1 3.12933 3.44227 0.9388 0.244639 
350 1 3.7552 3.44227 0.9388 0.244639 
354 1 4.38107 3.44227 0.9388 0.244639 
358 1 5.00693 3.44227 0.9388 0.244639 
360 1 5.6328 3.44227 0.9388 0.244639 
362 1 0.312933 3.7552 0.9388 0.244639 
365 1 0.9388 3.7552 0.9388 0.244639 
369 1 1.56467 3.7552 0.9388 0.244639 
373 1 2.19053 3.7552 0.9388 0.244639 
377 1 2.8164 3.7552 0.9388 0.244639 
381 1 3.44227 3.7552 0.9388 0.244639 
385 1 4.06813 3.7552 0.9388 0.244639 
389 1 4.694 3.7552 0.9388 0.244639 
393 1 5.31987 3.7552 0.9388 0.244639 
366 1 0.625867 4.06813 0.9388 0.244639 
370 1 1.25173 4.06813 0.9388 0.244639 
374 1 1.8776 4.06813 0.9388 0.244639 
378 1 2.50347 4.06813 0.9388 0.244639 
382 1 3.12933 4.06813 0.9388 0.244639 
386 1 3.7552 4.06813 0.9388 0.244639 
390 1 4.38107 4.06813 0.9388 0.244639 
394 1 5.00693 4.06813 0.9388 0.244639 
396 1 5.6328 4.06813 0.9388 0.244639 
398 1 0.312933 4.38107 0.9388 0.244639 
401 1 0.9388 4.38107 0.9388 0.244639 
405 1 1.56467 4.38107 0.9388 0.244639 
409 1 2.19053 4.38107 0.9388 0.244639 
413 1 2.8164 4.38107 0.9388 0.244639 
417 1 3.44227 4.38107 0.9388 0.244639 
421 1 4.06813 4.38107 0.9388 0.244639 
425 1 4.694 4.38107 0.9388 0.244639 
429 1 5.31987 4.38107 0.9388 0.244639 
402 1 0.625867 4.694 0.9388 0.244639 
406 1 1.25173 4.694 0.9388 0.244639 
410 1 1.8776 4.694 0.9388 0.244639 
414 1 2.50347 4.694 0.9388 0.244639 
418 1 3.12933 4.694 0.9388 0.244639 
422 1 3.7552 4.694 0.9388 0.244639 
426 1 4.38107 4.694 0.9388 0.244639 
430 1 5.00693 4.694 0.9388 0.244639 
432 1 5.6328 4.694 0.9388 0.244639 
434 1 0.312933 5.00693 0.9388 0.244639 
437 1 0.9388 5.00693 0.9388 0.244639 
441 1 1.56467 5.00693 0.9388 0.244639 
445 1 2.19053 5.00693 0.9388 0.244639 
449 1 2.8164 5.00693 0.9388 0.244639 
453 1 3.44227 5.00693 0.9388 0.244639 
457 1 4.06813 5.00693 0.9388 0.244639 
461 1 4.694 5.00693 0.9388 0.244639 
465 1 5.31987 5.00693 0.9388 0.244639 
438 1 0.625867 5.31987 0.9388 0.244639 
442 1 1.25173 5.31987 0.9388 0.244639 
446 1 1.8776 5.31987 0.9388 0.244639 
450 1 2.50347 5.31987 0.9388 0.244639 
454 1 3.12933 5.31987 0.9388 0.244639 
458 1 3.7552 5.31987 0.9388 0.244639 
462 1 4.38107 5.31987 0.9388 0.244639 
466 1 5.00693 5.31987 0.9388 0.244639 
468 1 5.6328 5.31987 0.9388 0.244639 
469 1 0.312933 5.6328 0.9388 0.244639 
471 1 0.9388 5.6328 0.9388 0.244639 
473 1 1.56467 5.6328 0.9388 0.244639 
475 1 2.19053 5.6328 0.9388 0.244639 
477 1 2.8164 5.6328 0.9388 0.244639 
479 1 3.44227 5.6328 0.9388 0.244639 
481 1 4.06813 5.6328 0.9388 0.244639 
483 1 4.694 5.6328 0.9388 0.244639 
485 1 5.31987 5.6328 0.9388 0.244639 
487 1 0.312933 0.312933 1.25173 0.244639 
488 1 0.9388 0.312933 1.25173 0.244639 
490 1 1.56467 0.312933 1.25173 0.244639 
492 1 2.19053 0.312933 1.25173 0.244639 
494 1 2.8164 0.312933 1.25173 0.244639 
496 1 3.44227 0.312933 1.25173 0.244639 
498 1 4.06813 0.312933 1.25173 0.244639 
500 1 4.694 0.312933 1.25173 0.244639 
502 1 5.31987 0.312933 1.25173 0.244639 
507 1 0.625867 0.625867 1.25173 0.244639 
511 1 1.25173 0.625867 1.25173 0.244639 
515 1 1.8776 0.625867 1.25173 0.244639 
519 1 2.50347 0.625867 1.25173 0.244639 
523 1 3.12933 0.625867 1.25173 0.244639 
527 1 3.7552 0.625867 1.25173 0.244639 
531 1 4.38107 0.625867 1.25173 0.244639 
535 1 5.00693 0.625867 1.25173 0.244639 
539 1 5.6328 0.625867 1.25173 0.244639 
505 1 0.312933 0.9388 1.25173 0.244639 
508 1 0.9388 0.9388 1.25173 0.244639 
512 1 1.56467 0.9388 1.25173 0.244639 
516 1 2.19053 0.9388 1.25173 0.244639 
520 1 2.8164 0.9388 1.25173 0.244639 
524 1 3.44227 0.9388 1.25173 0.244639 
528 1 4.06813 0.9388 1.25173 0.244639 
532 1 4.694 0.9388 1.25173 0.244639 
536 1 5.31987 0.9388 1.25173 0.244639 
543 1 0.625867 1.25173 1.25173 0.244639 
547 1 1.25173 1.25173 1.25173 0.244639 
551 1 1.8776 1.25173 1.25173 0.244639 
555 1 2.50347 1.25173 1.25173 0.244639 
559 1 3.12933 1.25173 1.25173 0.244639 
563 1 3.7552 1.25173 1.25173 0.244639 
567 1 4.38107 1.25173 1.25173 0.244639 
571 1 5.00693 1.25173 1.25173 0.244639 
575 1 5.6328 1.25173 1.25173 0.244639 
541 1 0.312933 1.56467 1.25173 0.244639 
544 1 0.9388 1.56467 1.25173 0.244639 
548 1 1.56467 1.56467 1.25173 0.244639 
552 1 2.19053 1.56467 1.25173 0.244639 
556 1 2.8164 1.56467 1.25173 0.244639 
560 1 3.44227 1.56467 1.25173 0.244639 
564 1 4.06813 1.56467 1.25173 0.244639 
568 1 4.694 1.56467 1.25173 0.244639 
572 1 5.31987 1.56467 1.25173 0.244639 
579 1 0.625867 1.8776 1.25173 0.244639 
583 1 1.25173 1.8776 1.25173 0.244639 
587 1 1.8776 1.8776 1.25173 0.244639 
591 1 2.50347 1.8776 1.25173 0.244639 
595 1 3.12933 1.8776 1.25173 0.244639 
599 1 3.7552 1.8776 1.25173 0.244639 
603 1 4.38107 1.8776 1.25173 0.244639 
607 1 5.00693 1.8776 1.25173 0.244639 
611 1 5.6328 1.8776 1.25173 0.244639 
577 1 0.312933 2.19053 1.25173 0.244639 
580 1 0.9388 2.19053 1.25173 0.244639 
584 1 1.56467 2.19053 1.25173 0.244639 
588 1 2.19053 2.19053 1.25173 0.244639 
592 1 2.8164 2.19053 1.25173 0.244639 
596 1 3.44227 2.19053 1.25173 0.244639 
600 1 4.06813 2.19053 1.25173 0.244639 
604 1 4.694 2.19053 1.25173 0.244639 
608 1 5.31987 2.19053 1.25173 0.244639 
615 1 0.625867 2.50347 1.25173 0.244639 
619 1 1.25173 2.50347 1.25173 0.244639 
623 1 1.8776 2.50347 1.25173 0.244639 
627 1 2.50347 2.50347 1.25173 0.244639 
631 1 3.12933 2.50347 1.25173 0.244639 
635 1 3.7552 2.50347 1.25173 0.244639 
639 1 4.38107 2.50347 1.25173 0.244639 
643 1 5.00693 2.50347 1.25173 0.244639 
647 1 5.6328 2.50347 1.25173 0.244639 
613 1 0.312933 2.8164 1.25173 0.244639 
616 1 0.9388 2.8164 1.25173 0.244639 
620 1 1.56467 2.8164 1.25173 0.244639 
624 1 2.19053 2.8164 1.25173 0.244639 
628 1 2.8164 2.8164 1.25173 0.244639 
632 1 3.44227 2.8164 1.25173 0.244639 
636 1 4.06813 2.8164 1.25173 0.244639 
640 1 4.694 2.8164 1.25173 0.244639 
644 1 5.31987 2.8164 1.25173 0.244639 
651 1 0.625867 3.12933 1.25173 0.244639 
655 1 1.25173 3.12933 1.25173 0.244639 
659 1 1.8776 3.12933 1.25173 0.244639 
663 1 2.50347 3.12933 1.25173 0.244639 
667 1 3.12933 3.12933 1.25173 0.244639 
671 1 3.7552 3.12933 1.25173 0.244639 
675 1 4.38107 3.12933 1.25173 0.244639 
679 1 5.00693 3.12933 1.25173 0.244639 
683 1 5.6328 3.12933 1.25173 0.244639 
649 1 0.312933 3.44227 1.25173 0.244639 
652 1 0.9388 3.44227 1.25173 0.244639 
656 1 1.56467 3.44227 1.25173 0.244639 
660 1 2.19053 3.44227 1.25173 0.244639 
664 1 2.8164 3.44227 1.25173 0.244639 
668 1 3.44227 3.44227 1.25173 0.244639 
672 1 4.06813 3.44227 1.25173 0.244639 
676 1 4.694 3.44227 1.25173 0.244639 
680 1 5.31987 3.44227 1.25173 0.244639 
687 1 0.625867 3.7552 1.25173 0.244639 
691 1 1.25173 3.7552 1.25173 0.244639 
695 1 1.8776 3.7552 1.25173 0.244639 
699 1 2.50347 3.7552 1.25173 0.244639 
703 1 3.12933 3.7552 1.25173 0.244639 
707 1 3.7552 3.7552 1.25173 0.244639 
711 1 4.38107 3.7552 1.25173 0.244639 
715 1 5.00693 3.7552 1.25173 0.244639 
719 1 5.6328 3.7552 1.25173 0.244639 
685 1 0.312933 4.06813 1.25173 0.244639 
688 1 0.9388 4.06813 1.25173 0.244639 
692 1 1.56467 4.06813 1.25173 0.244639 
696 1 2.19053 4.06813 1.25173 0.244639 
700 1 2.8164 4.06813 1.25173 0.244639 
704 1 3.44227 4.06813 1.25173 0.244639 
708 1 4.06813 4.06813 1.25173 0.244639 
712 1 4.694 4.06813 1.25173 0.244639 
716 1 5.31987 4.06813 1.25173 0.244639 
723 1 0.625867 4.38107 1.25173 0.244639 
727 1 1.25173 4.38107 1.25173 0.244639 
731 1 1.8776 4.38107 1.25173 0.244639 
735 1 2.50347 4.38107 1.25173 0.244639 
739 1 3.12933 4.38107 1.25173 0.244639 
743 1 3.7552 4.38107 1.25173 0.244639 
747 1 4.38107 4.38107 1.25173 0.244639 
751 1 5.00693 4.38107 1.25173 0.244639 
755 1 5.6328 4.38107 1.25173 0.244639 
721 1 0.312933 4.694 1.25173 0.244639 
724 1 0.9388 4.694 1.25173 0.244639 
728 1 1.56467 4.694 1.25173 0.244639 
732 1 2.19053 4.694 1.25173 0.244639 
736 1 2.8164 4.694 1.25173 0.244639 
740 1 3.44227 4.694 1.25173 0.244639 
744 1 4.06813 4.694 1.25173 0.244639 
748 1 4.694 4.694 1.25173 0.244639 
752 1 5.31987 4.694 1.25173 0.244639 
759 1 0.625867 5.00693 1.25173 0.244639 
763 1 1.25173 5.00693 1.25173 0.244639 
767 1 1.8776 5.00693 1.25173 0.244639 
771 1 2.50347 5.00693 1.25173 0.244639 
775 1 3.12933 5.00693 1.25173 0.244639 
779 1 3.7552 5.00693 1.25173 0.244639 
783 1 4.38107 5.00693 1.25173 0.244639 
787 1 5.00693 5.00693 1.25173 0.244639 
791 1 5.6328 5.00693 1.25173 0.244639 
757 1 0.312933 5.31987 1.25173 0.244639 
760 1 0.9388 5.31987 1.25173 0.244639 
764 1 1.56467 5.31987 1.25173 0.244639 
768 1 2.19053 5.31987 1.25173 0.244639 
772 1 2.8164 5.31987 1.25173 0.244639 
776 1 3.44227 5.31987 1.25173 0.244639 
780 1 4.06813 5.31987 1.25173 0.244639 
784 1 4.694 5.31987 1.25173 0.244639 
788 1 5.31987 5.31987 1.25173 0.244639 
794 1 0.625867 5.6328 1.25173 0.244639 
796 1 1.25173 5.6328 1.25173 0.244639 
798 1 1.8776 5.6328 1.25173 0.244639 
800 1 2.50347 5.6328 1.25173 0.244639 
802 1 3.12933 5.6328 1.25173 0.244639 
804 1 3.7552 5.6328 1.25173 0.244639 
806 1 4.38107 5.6328 1.25173 0.244639 
808 1 5.00693 5.6328 1.25173 0.244639 
810 1 5.6328 5.6328 1.25173 0.244639 
489 1 0.625867 0.312933 1.56467 0.244639 
491 1 1.25173 0.312933 1.56467 0.244639 
493 1 1.8776 0.312933 1.56467 0.244639 
495 1 2.50347 0.312933 1.56467 0.244639 
497 1 3.12933 0.312933 1.56467 0.244639 
499 1 3.7552 0.312933 1.56467 0.244639 
501 1 4.38107 0.312933 1.56467 0.244639 
503 1 5.00693 0.312933 1.56467 0.244639 
504 1 5.6328 0.312933 1.56467 0.244639 
506 1 0.312933 0.625867 1.56467 0.244639 
509 1 0.9388 0.625867 1.56467 0.244639 
513 1 1.56467 0.625867 1.56467 0.244639 
517 1 2.19053 0.625867 1.56467 0.244639 
521 1 2.8164 0.625867 1.56467 0.244639 
525 1 3.44227 0.625867 1.56467 0.244639 
529 1 4.06813 0.625867 1.56467 0.244639 
533 1 4.694 0.625867 1.56467 0.244639 
537 1 5.31987 0.625867 1.56467 0.244639 
510 1 0.625867 0.9388 1.56467 0.244639 
514 1 1.25173 0.9388 1.56467 0.244639 
518 1 1.8776 0.9388 1.56467 0.244639 
522 1 2.50347 0.9388 1.56467 0.244639 
526 1 3.12933 0.9388 1.56467 0.244639 
530 1 3.7552 0.9388 1.56467 0.244639 
534 1 4.38107 0.9388 1.56467 0.244639 
538 1 5.00693 0.9388 1.56467 0.244639 
540 1 5.6328 0.9388 1.56467 0.244639 
542 1 0.312933 1.25173 1.56467 0.244639 
545 1 0.9388 1.25173 1.56467 0.244639 
549 1 1.56467 1.25173 1.56467 0.244639 
553 1 2.19053 1.25173 1.56467 0.244639 
557 1 2.8164 1.25173 1.56467 0.244639 
561 1 3.44227 1.25173 1.56467 0.244639 
565 1 4.06813 1.25173 1.56467 0.244639 
569 1 4.694 1.25173 1.56467 0.244639 
573 1 5.31987 1.25173 1.56467 0.244639 
546 1 0.625867 1.56467 1.56467 0.244639 
550 1 1.25173 1.56467 1.56467 0.244639 
554 1 1.8776 1.56467 1.56467 0.244639 
558 1 2.50347 1.56467 1.56467 0.244639 
562 1 3.12933 1.56467 1.56467 0.244639 
566 1 3.7552 1.56467 1.56467 0.244639 
570 1 4.38107 1.56467 1.56467 0.244639 
574 1 5.00693 1.56467 1.56467 0.244639 
576 1 5.6328 1.56467 1.56467 0.244639 
578 1 0.312933 1.8776 1.56467 0.244639 
581 1 0.9388 1.8776 1.56467 0.244639 
585 1 1.56467 1.8776 1.56467 0.244639 
589 1 2.19053 1.8776 1.56467 0.244639 
593 1 2.8164 1.8776 1.56467 0.244639 
597 1 3.44227 1.8776 1.56467 0.244639 
601 1 4.06813 1.8776 1.56467 0.244639 
605 1 4.694 1.8776 1.56467 0.244639 
609 1 5.31987 1.8776 1.56467 0.244639 
582 1 0.625867 2.19053 1.56467 0.244639 
586 1 1.25173 2.19053 1.56467 0.244639 
590 1 1.8776 2.19053 1.56467 0.244639 
594 1 2.50347 2.19053 1.56467 0.244639 
598 1 3.12933 2.19053 1.56467 0.244639 
602 1 3.7552 2.19053 1.56467 0.244639 
606 1 4.38107 2.19053 1.56467 0.244639 
610 1 5.00693 2.19053 1.56467 0.244639 
612 1 5.6328 2.19053 1.56467 0.244639 
614 1 0.312933 2.50347 1.56467 0.244639 
617 1 0.9388 2.50347 1.56467 0.244639 
621 1 1.56467 2.50347 1.56467 0.244639 
625 1 2.19053 2.50347 1.56467 0.244639 
629 1 2.8164 2.50347 1.56467 0.244639 
633 1 3.44227 2.50347 1.56467 0.244639 
637 1 4.06813 2.50347 1.56467 0.244639 
641 1 4.694 2.50347 1.56467 0.244639 
645 1 5.31987 2.50347 1.56467 0.244639 
618 1 0.625867 2.8164 1.56467 0.244639 
622 1 1.25173 2.8164 1.56467 0.244639 
626 1 1.8776 2.8164 1.56467 0.244639 
630 1 2.50347 2.8164 1.56467 0.244639 
634 1 3.12933 2.8164 1.56467 0.244639 
638 1 3.7552 2.8164 1.56467 0.244639 
642 1 4.38107 2.8164 1.56467 0.244639 
646 1 5.00693 2.8164 1.56467 0.244639 
648 1 5.6328 2.8164 1.56467 0.244639 
650 1 0.312933 3.12933 1.56467 0.244639 
653 1 0.9388 3.12933 1.56467 0.244639 
657 1 1.56467 3.12933 1.56467 0.244639 
661 1 2.19053 3.12933 1.56467 0.244639 
665 1 2.8164 3.12933 1.56467 0.244639 
669 1 3.44227 3.12933 1.56467 0.244639 
673 1 4.06813 3.12933 1.56467 0.244639 
677 1 4.694 3.12933 1.56467 0.244639 
681 1 5.31987 3.12933 1.56467 0.244639 
654 1 0.625867 3.44227 1.56467 0.244639 
658 1 1.25173 3.44227 1.56467 0.244639 
662 1 1.8776 3.44227 1.56467 0.244639 
666 1 2.50347 3.44227 1.56467 0.244639 
670 1 3.12933 3.44227 1.56467 0.244639 
674 1 3.7552 3.44227 1.56467 0.244639 
678 1 4.38107 3.44227 1.56467 0.244639 
682 1 5.00693 3.44227 1.56467 0.244639 
684 1 5.6328 3.44227 1.56467 0.244639 
686 1 0.312933 3.7552 1.56467 0.244639 
689 1 0.9388 3.7552 1.56467 0.244639 
693 1 1.56467 3.7552 1.56467 0.244639 
697 1 2.19053 3.7552 1.56467 0.244639 
701 1 2.8164 3.7552 1.56467 0.244639 